ITEM: TIMESTEP
0
ITEM: NUMBER OF ATOMS
20021
ITEM: BOX BOUNDS pp pp pp
 0.010.0
 0.010.0
 0.010.0
ITEM: ATOMS id type x y z 
1    11  0.1353  9.8779  0.0315
2     1  0.0199  6.8617  0.1268
3     1  0.0458  7.3215  0.1615
4     1  0.0716  7.7814  0.1963
5     1  0.0975  8.2412  0.2310
6     1  0.1234  8.7010  0.2658
7     1  0.1492  9.1609  0.3005
8     1  0.1751  9.6207  0.3353
9     1  0.3029  6.1579  0.0206
10     1  0.3288  6.6177  0.0554
11     1  0.3547  7.0776  0.0901
12     1  0.3805  7.5374  0.1249
13     1  0.4064  7.9973  0.1596
14     1  0.4322  8.4571  0.1944
15     1  0.4581  8.9169  0.2292
16     1  0.4840  9.3768  0.2639
17    11  0.5098  9.8366  0.2987
18     1  0.0080  5.6848  0.3610
19     1  0.0338  6.1447  0.3958
20     1  0.0597  6.6045  0.4305
21     1  0.0856  7.0643  0.4653
22     1  0.1114  7.5242  0.5001
23     1  0.1373  7.9840  0.5348
24     1  0.1632  8.4439  0.5696
25     1  0.1890  8.9037  0.6043
26     1  0.2149  9.3636  0.6391
27     1  0.2407  9.8234  0.6738
28     1  0.6635  6.8336  0.0187
29     1  0.6894  7.2935  0.0535
30     1  0.7152  7.7533  0.0883
31     1  0.7411  8.2132  0.1230
32     1  0.7670  8.6730  0.1578
33     1  0.7928  9.1329  0.1925
34    11  0.8187  9.5927  0.2273
35    11  0.2651  4.5212  0.2201
36    11  0.2910  4.9810  0.2549
37     1  0.3169  5.4409  0.2896
38     1  0.3427  5.9007  0.3244
39     1  0.3686  6.3606  0.3592
40     1  0.3944  6.8204  0.3939
41     1  0.4203  7.2803  0.4287
42     1  0.4462  7.7401  0.4634
43     1  0.4720  8.1999  0.4982
44     1  0.4979  8.6598  0.5329
45     1  0.5237  9.1196  0.5677
46     1  0.5496  9.5795  0.6025
47     1  0.0219  4.9678  0.6301
48     1  0.0478  5.4277  0.6648
49     1  0.0736  5.8875  0.6996
50     1  0.0995  6.3473  0.7343
51     1  0.1254  6.8072  0.7691
52     1  0.1512  7.2670  0.8038
53     1  0.1771  7.7269  0.8386
54     1  0.2029  8.1867  0.8734
55     1  0.2288  8.6466  0.9081
56     1  0.2547  9.1064  0.9429
57     1  0.2805  9.5662  0.9776
58     1  0.0114  9.5530  1.3528
59     1  1.0241  7.5094  0.0169
60     1  1.0500  7.9692  0.0516
61     1  1.0758  8.4291  0.0864
62    11  1.1017  8.8889  0.1211
63    11  1.1276  9.3488  0.1559
64    11  1.1534  9.8086  0.1907
65    11  0.5740  4.2772  0.1487
66     1  0.5999  4.7371  0.1835
67     1  0.6257  5.1969  0.2183
68     1  0.6516  5.6568  0.2530
69     1  0.6774  6.1166  0.2878
70     1  0.7033  6.5765  0.3225
71     1  0.7292  7.0363  0.3573
72     1  0.7550  7.4962  0.3920
73     1  0.7809  7.9560  0.4268
74     1  0.8067  8.4158  0.4616
75     1  0.8326  8.8757  0.4963
76    11  0.8585  9.3355  0.5311
77    11  0.8843  9.7954  0.5658
78    11  0.3049  4.2640  0.5239
79    11  0.3308  4.7239  0.5587
80     1  0.3566  5.1837  0.5934
81     1  0.3825  5.6436  0.6282
82     1  0.4084  6.1034  0.6629
83     1  0.4342  6.5632  0.6977
84     1  0.4601  7.0231  0.7325
85     1  0.4859  7.4829  0.7672
86     1  0.5118  7.9428  0.8020
87     1  0.5377  8.4026  0.8367
88     1  0.5635  8.8625  0.8715
89     1  0.5894  9.3223  0.9062
90    11  0.6153  9.7822  0.9410
91    11  0.0358  4.2508  0.8991
92     1  0.0617  4.7106  0.9338
93     1  0.0876  5.1705  0.9686
94     1  0.1134  5.6303  1.0034
95     1  0.1393  6.0902  1.0381
96     1  0.1651  6.5500  1.0729
97     1  0.1910  7.0099  1.1076
98     1  0.2169  7.4697  1.1424
99     1  0.2427  7.9296  1.1771
100     1  0.2686  8.3894  1.2119
101     1  0.2944  8.8492  1.2467
102     1  0.3203  9.3091  1.2814
103     1  0.3462  9.7689  1.3162
104     1  0.0254  8.8360  1.6218
105     1  0.0512  9.2959  1.6566
106     1  0.0771  9.7557  1.6913
107     1  1.3847  8.1851  0.0150
108     1  1.4106  8.6450  0.0498
109    11  1.4364  9.1048  0.0845
110     1  0.9087  4.4932  0.1121
111     1  0.9346  4.9530  0.1469
112     1  0.9604  5.4128  0.1816
113     1  0.9863  5.8727  0.2164
114     1  1.0122  6.3325  0.2511
115     1  1.0380  6.7924  0.2859
116     1  1.0639  7.2522  0.3207
117     1  1.0898  7.7121  0.3554
118     1  1.1156  8.1719  0.3902
119     1  1.1415  8.6318  0.4249
120     1  1.1673  9.0916  0.4597
121    11  1.1932  9.5514  0.4944
122    11  0.6396  4.4799  0.4873
123     1  0.6655  4.9398  0.5220
124     1  0.6914  5.3996  0.5568
125     1  0.7172  5.8595  0.5916
126     1  0.7431  6.3193  0.6263
127     1  0.7689  6.7792  0.6611
128     1  0.7948  7.2390  0.6958
129     1  0.8207  7.6988  0.7306
130     1  0.8465  8.1587  0.7653
131     1  0.8724  8.6185  0.8001
132     1  0.8983  9.0784  0.8349
133     1  0.9241  9.5382  0.8696
134    11  0.9500  9.9981  0.9044
135    11  0.3447  4.0069  0.8277
136     1  0.3706  4.4667  0.8625
137     1  0.3964  4.9266  0.8972
138     1  0.4223  5.3864  0.9320
139     1  0.4481  5.8462  0.9667
140     1  0.4740  6.3061  1.0015
141     1  0.4999  6.7659  1.0362
142     1  0.5257  7.2258  1.0710
143     1  0.5516  7.6856  1.1058
144     1  0.5775  8.1455  1.1405
145     1  0.6033  8.6053  1.1753
146     1  0.6292  9.0651  1.2100
147     1  0.6550  9.5250  1.2448
148     1  0.6809  9.9848  1.2795
149    11  0.0756  3.9936  1.2029
150     1  0.1015  4.4535  1.2376
151     1  0.1273  4.9133  1.2724
152     1  0.1532  5.3732  1.3071
153     1  0.1791  5.8330  1.3419
154     1  0.2049  6.2929  1.3767
155     1  0.2308  6.7527  1.4114
156     1  0.2566  7.2125  1.4462
157     1  0.2825  7.6724  1.4809
158     1  0.3084  8.1322  1.5157
159     1  0.3342  8.5921  1.5504
160     1  0.3601  9.0519  1.5852
161     1  0.3860  9.5118  1.6200
162     1  0.4118  9.9716  1.6547
163     1  0.0134  7.6592  1.8561
164     1  0.0393  8.1190  1.8909
165     1  0.0651  8.5789  1.9256
166     1  0.0910  9.0387  1.9604
167     1  0.1169  9.4985  1.9951
168     1  0.1427  9.9584  2.0299
169    11  1.7453  8.8609  0.0131
170     1  1.2176  4.2492  0.0407
171     1  1.2434  4.7091  0.0755
172     1  1.2693  5.1689  0.1102
173     1  1.2952  5.6288  0.1450
174     1  1.3210  6.0886  0.1798
175     1  1.3469  6.5484  0.2145
176     1  1.3728  7.0083  0.2493
177     1  1.3986  7.4681  0.2840
178     1  1.4245  7.9280  0.3188
179     1  1.4503  8.3878  0.3535
180     1  1.4762  8.8477  0.3883
181    11  1.5021  9.3075  0.4231
182    11  0.9485  4.2360  0.4159
183     1  0.9744  4.6958  0.4507
184     1  1.0002  5.1557  0.4854
185     1  1.0261  5.6155  0.5202
186     1  1.0520  6.0754  0.5549
187     1  1.0778  6.5352  0.5897
188     1  1.1037  6.9951  0.6244
189     1  1.1295  7.4549  0.6592
190     1  1.1554  7.9147  0.6940
191     1  1.1813  8.3746  0.7287
192     1  1.2071  8.8344  0.7635
193     1  1.2330  9.2943  0.7982
194    11  1.2588  9.7541  0.8330
195    11  0.6794  4.2228  0.7911
196     1  0.7053  4.6826  0.8258
197     1  0.7311  5.1425  0.8606
198     1  0.7570  5.6023  0.8953
199     1  0.7829  6.0621  0.9301
200     1  0.8087  6.5220  0.9649
201     1  0.8346  6.9818  0.9996
202     1  0.8605  7.4417  1.0344
203     1  0.8863  7.9015  1.0691
204     1  0.9122  8.3614  1.1039
205     1  0.9380  8.8212  1.1386
206     1  0.9639  9.2811  1.1734
207    11  0.9898  9.7409  1.2082
208    11  0.3845  3.7497  1.1315
209    11  0.4103  4.2095  1.1662
210     1  0.4362  4.6694  1.2010
211     1  0.4621  5.1292  1.2358
212     1  0.4879  5.5891  1.2705
213     1  0.5138  6.0489  1.3053
214     1  0.5396  6.5088  1.3400
215     1  0.5655  6.9686  1.3748
216     1  0.5914  7.4285  1.4095
217     1  0.6172  7.8883  1.4443
218     1  0.6431  8.3481  1.4791
219     1  0.6690  8.8080  1.5138
220     1  0.6948  9.2678  1.5486
221     1  0.7207  9.7277  1.5833
222    11  0.1154  3.7365  1.5066
223     1  0.1413  4.1963  1.5414
224     1  0.1671  4.6562  1.5762
225     1  0.1930  5.1160  1.6109
226     1  0.2188  5.5759  1.6457
227     1  0.2447  6.0357  1.6804
228     1  0.2706  6.4955  1.7152
229     1  0.2964  6.9554  1.7500
230     1  0.3223  7.4152  1.7847
231     1  0.3482  7.8751  1.8195
232     1  0.3740  8.3349  1.8542
233     1  0.3999  8.7948  1.8890
234     1  0.4257  9.2546  1.9237
235     1  0.4516  9.7144  1.9585
236     1  0.0015  6.4823  2.0904
237     1  0.0273  6.9422  2.1251
238     1  0.0532  7.4020  2.1599
239     1  0.0791  7.8618  2.1946
240     1  0.1049  8.3217  2.2294
241     1  0.1308  8.7815  2.2642
242     1  0.1567  9.2414  2.2989
243     1  0.1825  9.7012  2.3337
244     1  1.5523  4.4651  0.0041
245     1  1.5782  4.9250  0.0389
246     1  1.6040  5.3848  0.0736
247     1  1.6299  5.8447  0.1084
248     1  1.6558  6.3045  0.1431
249     1  1.6816  6.7643  0.1779
250     1  1.7075  7.2242  0.2126
251     1  1.7333  7.6840  0.2474
252     1  1.7592  8.1439  0.2822
253    11  1.7851  8.6037  0.3169
254    11  1.8109  9.0636  0.3517
255    11  1.2574  3.9921  0.3445
256     1  1.2832  4.4519  0.3793
257     1  1.3091  4.9117  0.4140
258     1  1.3350  5.3716  0.4488
259     1  1.3608  5.8314  0.4835
260     1  1.3867  6.2913  0.5183
261     1  1.4125  6.7511  0.5531
262     1  1.4384  7.2110  0.5878
263     1  1.4643  7.6708  0.6226
264     1  1.4901  8.1307  0.6573
265     1  1.5160  8.5905  0.6921
266    11  1.5418  9.0503  0.7268
267    11  1.5677  9.5102  0.7616
268    11  0.9883  3.9788  0.7197
269     1  1.0142  4.4387  0.7544
270     1  1.0400  4.8985  0.7892
271     1  1.0659  5.3584  0.8240
272     1  1.0917  5.8182  0.8587
273     1  1.1176  6.2781  0.8935
274     1  1.1435  6.7379  0.9282
275     1  1.1693  7.1977  0.9630
276     1  1.1952  7.6576  0.9977
277     1  1.2210  8.1174  1.0325
278     1  1.2469  8.5773  1.0673
279     1  1.2728  9.0371  1.1020
280    11  1.2986  9.4970  1.1368
281     1  1.3245  9.9568  1.1715
282    11  0.7192  3.9656  1.0948
283     1  0.7451  4.4255  1.1296
284     1  0.7709  4.8853  1.1644
285     1  0.7968  5.3451  1.1991
286     1  0.8227  5.8050  1.2339
287     1  0.8485  6.2648  1.2686
288     1  0.8744  6.7247  1.3034
289     1  0.9002  7.1845  1.3382
290     1  0.9261  7.6444  1.3729
291     1  0.9520  8.1042  1.4077
292     1  0.9778  8.5640  1.4424
293     1  1.0037  9.0239  1.4772
294     1  1.0295  9.4837  1.5119
295     1  1.0554  9.9436  1.5467
296    11  0.4243  3.4925  1.4353
297     1  0.4501  3.9524  1.4700
298     1  0.4760  4.4122  1.5048
299     1  0.5018  4.8721  1.5395
300     1  0.5277  5.3319  1.5743
301     1  0.5536  5.7918  1.6091
302     1  0.5794  6.2516  1.6438
303     1  0.6053  6.7114  1.6786
304     1  0.6312  7.1713  1.7133
305     1  0.6570  7.6311  1.7481
306     1  0.6829  8.0910  1.7828
307     1  0.7087  8.5508  1.8176
308     1  0.7346  9.0107  1.8524
309     1  0.7605  9.4705  1.8871
310     1  0.7863  9.9304  1.9219
311    11  0.1552  3.4793  1.8104
312    11  0.1810  3.9392  1.8452
313     1  0.2069  4.3990  1.8799
314     1  0.2328  4.8588  1.9147
315     1  0.2586  5.3187  1.9495
316     1  0.2845  5.7785  1.9842
317     1  0.3104  6.2384  2.0190
318     1  0.3362  6.6982  2.0537
319     1  0.3621  7.1581  2.0885
320     1  0.3879  7.6179  2.1233
321     1  0.4138  8.0778  2.1580
322     1  0.4397  8.5376  2.1928
323     1  0.4655  8.9974  2.2275
324     1  0.4914  9.4573  2.2623
325     1  0.5172  9.9171  2.2970
326     1  0.0154  5.7653  2.3594
327     1  0.0413  6.2252  2.3942
328     1  0.0671  6.6850  2.4289
329     1  0.0930  7.1448  2.4637
330     1  0.1189  7.6047  2.4984
331     1  0.1447  8.0645  2.5332
332     1  0.1706  8.5244  2.5679
333     1  0.1964  8.9842  2.6027
334     1  0.2223  9.4441  2.6375
335     1  0.2482  9.9039  2.6722
336     1  1.9129  5.1409  0.0022
337     1  1.9388  5.6007  0.0370
338     1  1.9646  6.0606  0.0717
339     1  1.9905  6.5204  0.1065
340     1  2.0164  6.9803  0.1413
341     1  2.0422  7.4401  0.1760
342     1  2.0681  7.8999  0.2108
343    11  2.0939  8.3598  0.2455
344    11  2.1198  8.8196  0.2803
345    11  1.5662  3.7481  0.2731
346    11  1.5921  4.2080  0.3079
347     1  1.6180  4.6678  0.3426
348     1  1.6438  5.1277  0.3774
349     1  1.6697  5.5875  0.4122
350     1  1.6955  6.0473  0.4469
351     1  1.7214  6.5072  0.4817
352     1  1.7473  6.9670  0.5164
353     1  1.7731  7.4269  0.5512
354     1  1.7990  7.8867  0.5859
355     1  1.8249  8.3466  0.6207
356    11  1.8507  8.8064  0.6555
357    11  1.8766  9.2662  0.6902
358    11  1.2972  3.7349  0.6483
359     1  1.3230  4.1947  0.6830
360     1  1.3489  4.6546  0.7178
361     1  1.3747  5.1144  0.7526
362     1  1.4006  5.5743  0.7873
363     1  1.4265  6.0341  0.8221
364     1  1.4523  6.4940  0.8568
365     1  1.4782  6.9538  0.8916
366     1  1.5040  7.4136  0.9264
367     1  1.5299  7.8735  0.9611
368     1  1.5558  8.3333  0.9959
369     1  1.5816  8.7932  1.0306
370    11  1.6075  9.2530  1.0654
371    11  1.6334  9.7129  1.1001
372    11  1.0281  3.7217  1.0235
373     1  1.0539  4.1815  1.0582
374     1  1.0798  4.6414  1.0930
375     1  1.1057  5.1012  1.1277
376     1  1.1315  5.5610  1.1625
377     1  1.1574  6.0209  1.1973
378     1  1.1832  6.4807  1.2320
379     1  1.2091  6.9406  1.2668
380     1  1.2350  7.4004  1.3015
381     1  1.2608  7.8603  1.3363
382     1  1.2867  8.3201  1.3710
383     1  1.3126  8.7800  1.4058
384     1  1.3384  9.2398  1.4406
385    11  1.3643  9.6996  1.4753
386    11  0.7590  3.7084  1.3986
387     1  0.7849  4.1683  1.4334
388     1  0.8107  4.6281  1.4681
389     1  0.8366  5.0880  1.5029
390     1  0.8624  5.5478  1.5377
391     1  0.8883  6.0077  1.5724
392     1  0.9142  6.4675  1.6072
393     1  0.9400  6.9274  1.6419
394     1  0.9659  7.3872  1.6767
395     1  0.9917  7.8470  1.7115
396     1  1.0176  8.3069  1.7462
397     1  1.0435  8.7667  1.7810
398     1  1.0693  9.2266  1.8157
399     1  1.0952  9.6864  1.8505
400    11  0.4899  3.6952  1.7738
401     1  0.5158  4.1551  1.8086
402     1  0.5416  4.6149  1.8433
403     1  0.5675  5.0748  1.8781
404     1  0.5934  5.5346  1.9128
405     1  0.6192  5.9944  1.9476
406     1  0.6451  6.4543  1.9824
407     1  0.6709  6.9141  2.0171
408     1  0.6968  7.3740  2.0519
409     1  0.7227  7.8338  2.0866
410     1  0.7485  8.2937  2.1214
411     1  0.7744  8.7535  2.1561
412     1  0.8002  9.2133  2.1909
413     1  0.8261  9.6732  2.2257
414    11  0.1950  3.2222  2.1142
415     1  0.2208  3.6820  2.1490
416     1  0.2467  4.1418  2.1837
417     1  0.2726  4.6017  2.2185
418     1  0.2984  5.0615  2.2532
419     1  0.3243  5.5214  2.2880
420     1  0.3501  5.9812  2.3228
421     1  0.3760  6.4411  2.3575
422     1  0.4019  6.9009  2.3923
423     1  0.4277  7.3607  2.4270
424     1  0.4536  7.8206  2.4618
425     1  0.4794  8.2804  2.4966
426     1  0.5053  8.7403  2.5313
427     1  0.5312  9.2001  2.5661
428     1  0.5570  9.6600  2.6008
429     1  0.0035  4.5885  2.5937
430     1  0.0293  5.0483  2.6284
431     1  0.0552  5.5081  2.6632
432     1  0.0811  5.9680  2.6979
433     1  0.1069  6.4278  2.7327
434     1  0.1328  6.8877  2.7675
435     1  0.1586  7.3475  2.8022
436     1  0.1845  7.8074  2.8370
437     1  0.2104  8.2672  2.8717
438     1  0.2362  8.7271  2.9065
439     1  0.2621  9.1869  2.9412
440     1  0.2879  9.6467  2.9760
441    11  0.0189  9.6335  3.3512
442     1  2.2735  5.8166  0.0004
443     1  2.2994  6.2765  0.0351
444     1  2.3252  6.7363  0.0699
445     1  2.3511  7.1962  0.1046
446     1  2.3769  7.6560  0.1394
447    11  2.4028  8.1158  0.1741
448    11  2.4287  8.5757  0.2089
449    11  1.9010  3.9640  0.2365
450     1  1.9268  4.4239  0.2712
451     1  1.9527  4.8837  0.3060
452     1  1.9786  5.3436  0.3408
453     1  2.0044  5.8034  0.3755
454     1  2.0303  6.2632  0.4103
455     1  2.0561  6.7231  0.4450
456     1  2.0820  7.1829  0.4798
457     1  2.1079  7.6428  0.5146
458     1  2.1337  8.1026  0.5493
459    11  2.1596  8.5625  0.5841
460    11  2.1854  9.0223  0.6188
461    11  1.6060  3.4910  0.5769
462     1  1.6319  3.9508  0.6117
463     1  1.6577  4.4106  0.6464
464     1  1.6836  4.8705  0.6812
465     1  1.7095  5.3303  0.7159
466     1  1.7353  5.7902  0.7507
467     1  1.7612  6.2500  0.7855
468     1  1.7871  6.7099  0.8202
469     1  1.8129  7.1697  0.8550
470     1  1.8388  7.6296  0.8897
471     1  1.8646  8.0894  0.9245
472     1  1.8905  8.5492  0.9592
473    11  1.9164  9.0091  0.9940
474    11  1.9422  9.4689  1.0288
475    11  1.3369  3.4777  0.9521
476     1  1.3628  3.9376  0.9868
477     1  1.3887  4.3974  1.0216
478     1  1.4145  4.8573  1.0563
479     1  1.4404  5.3171  1.0911
480     1  1.4662  5.7770  1.1259
481     1  1.4921  6.2368  1.1606
482     1  1.5180  6.6966  1.1954
483     1  1.5438  7.1565  1.2301
484     1  1.5697  7.6163  1.2649
485     1  1.5956  8.0762  1.2997
486     1  1.6214  8.5360  1.3344
487     1  1.6473  8.9959  1.3692
488    11  1.6731  9.4557  1.4039
489     1  1.6990  9.9155  1.4387
490    11  1.0679  3.4645  1.3272
491     1  1.0937  3.9244  1.3620
492     1  1.1196  4.3842  1.3968
493     1  1.1454  4.8440  1.4315
494     1  1.1713  5.3039  1.4663
495     1  1.1972  5.7637  1.5010
496     1  1.2230  6.2236  1.5358
497     1  1.2489  6.6834  1.5706
498     1  1.2748  7.1433  1.6053
499     1  1.3006  7.6031  1.6401
500     1  1.3265  8.0629  1.6748
501     1  1.3523  8.5228  1.7096
502     1  1.3782  8.9826  1.7443
503     1  1.4041  9.4425  1.7791
504    11  1.4299  9.9023  1.8139
505    11  0.7988  3.4513  1.7024
506     1  0.8246  3.9111  1.7372
507     1  0.8505  4.3710  1.7719
508     1  0.8764  4.8308  1.8067
509     1  0.9022  5.2907  1.8414
510     1  0.9281  5.7505  1.8762
511     1  0.9539  6.2103  1.9110
512     1  0.9798  6.6702  1.9457
513     1  1.0057  7.1300  1.9805
514     1  1.0315  7.5899  2.0152
515     1  1.0574  8.0497  2.0500
516     1  1.0833  8.5096  2.0848
517     1  1.1091  8.9694  2.1195
518     1  1.1350  9.4293  2.1543
519     1  1.1608  9.8891  2.1890
520     1  0.5297  3.4381  2.0776
521     1  0.5556  3.8979  2.1123
522     1  0.5814  4.3577  2.1471
523     1  0.6073  4.8176  2.1819
524     1  0.6331  5.2774  2.2166
525     1  0.6590  5.7373  2.2514
526     1  0.6849  6.1971  2.2861
527     1  0.7107  6.6570  2.3209
528     1  0.7366  7.1168  2.3557
529     1  0.7624  7.5767  2.3904
530     1  0.7883  8.0365  2.4252
531     1  0.8142  8.4963  2.4599
532     1  0.8400  8.9562  2.4947
533     1  0.8659  9.4160  2.5294
534     1  0.8918  9.8759  2.5642
535    11  0.2348  2.9650  2.4180
536    11  0.2606  3.4248  2.4528
537     1  0.2865  3.8847  2.4875
538     1  0.3123  4.3445  2.5223
539     1  0.3382  4.8044  2.5570
540     1  0.3641  5.2642  2.5918
541     1  0.3899  5.7241  2.6265
542     1  0.4158  6.1839  2.6613
543     1  0.4416  6.6437  2.6961
544     1  0.4675  7.1036  2.7308
545     1  0.4934  7.5634  2.7656
546     1  0.5192  8.0233  2.8003
547     1  0.5451  8.4831  2.8351
548     1  0.5710  8.9430  2.8699
549     1  0.5968  9.4028  2.9046
550     1  0.6227  9.8626  2.9394
551     1  0.0174  3.8715  2.8627
552     1  0.0433  4.3313  2.8974
553     1  0.0691  4.7911  2.9322
554     1  0.0950  5.2510  2.9670
555     1  0.1208  5.7108  3.0017
556     1  0.1467  6.1707  3.0365
557     1  0.1726  6.6305  3.0712
558     1  0.1984  7.0904  3.1060
559     1  0.2243  7.5502  3.1408
560     1  0.2501  8.0100  3.1755
561     1  0.2760  8.4699  3.2103
562     1  0.3019  8.9297  3.2450
563     1  0.3277  9.3896  3.2798
564    11  0.3536  9.8494  3.3145
565     1  0.0069  8.4567  3.5854
566    11  0.0328  8.9165  3.6202
567    11  0.0587  9.3764  3.6550
568    11  0.0845  9.8362  3.6897
569     1  2.6599  6.9522  0.0332
570     1  2.6858  7.4121  0.0680
571    11  2.7117  7.8719  0.1028
572    11  2.2098  3.7201  0.1651
573     1  2.2357  4.1799  0.1999
574     1  2.2616  4.6398  0.2346
575     1  2.2874  5.0996  0.2694
576     1  2.3133  5.5595  0.3041
577     1  2.3391  6.0193  0.3389
578     1  2.3650  6.4792  0.3736
579     1  2.3909  6.9390  0.4084
580     1  2.4167  7.3988  0.4432
581    11  2.4426  7.8587  0.4779
582    11  2.4684  8.3185  0.5127
583     1  1.9408  3.7069  0.5403
584     1  1.9666  4.1667  0.5750
585     1  1.9925  4.6266  0.6098
586     1  2.0183  5.0864  0.6445
587     1  2.0442  5.5462  0.6793
588     1  2.0701  6.0061  0.7141
589     1  2.0959  6.4659  0.7488
590     1  2.1218  6.9258  0.7836
591     1  2.1476  7.3856  0.8183
592     1  2.1735  7.8455  0.8531
593     1  2.1994  8.3053  0.8879
594    11  2.2252  8.7651  0.9226
595    11  1.6458  3.2338  0.8807
596    11  1.6717  3.6936  0.9154
597     1  1.6975  4.1535  0.9502
598     1  1.7234  4.6133  0.9850
599     1  1.7493  5.0732  1.0197
600     1  1.7751  5.5330  1.0545
601     1  1.8010  5.9929  1.0892
602     1  1.8268  6.4527  1.1240
603     1  1.8527  6.9125  1.1588
604     1  1.8786  7.3724  1.1935
605     1  1.9044  7.8322  1.2283
606     1  1.9303  8.2921  1.2630
607     1  1.9561  8.7519  1.2978
608    11  1.9820  9.2118  1.3325
609    11  1.3767  3.2206  1.2559
610     1  1.4026  3.6804  1.2906
611     1  1.4284  4.1403  1.3254
612     1  1.4543  4.6001  1.3601
613     1  1.4802  5.0599  1.3949
614     1  1.5060  5.5198  1.4296
615     1  1.5319  5.9796  1.4644
616     1  1.5578  6.4395  1.4992
617     1  1.5836  6.8993  1.5339
618     1  1.6095  7.3592  1.5687
619     1  1.6353  7.8190  1.6034
620     1  1.6612  8.2789  1.6382
621     1  1.6871  8.7387  1.6730
622     1  1.7129  9.1985  1.7077
623    11  1.7388  9.6584  1.7425
624    11  1.1076  3.2073  1.6310
625     1  1.1335  3.6672  1.6658
626     1  1.1594  4.1270  1.7005
627     1  1.1852  4.5869  1.7353
628     1  1.2111  5.0467  1.7701
629     1  1.2370  5.5066  1.8048
630     1  1.2628  5.9664  1.8396
631     1  1.2887  6.4263  1.8743
632     1  1.3145  6.8861  1.9091
633     1  1.3404  7.3459  1.9439
634     1  1.3663  7.8058  1.9786
635     1  1.3921  8.2656  2.0134
636     1  1.4180  8.7255  2.0481
637     1  1.4438  9.1853  2.0829
638     1  1.4697  9.6452  2.1176
639    11  0.8386  3.1941  2.0062
640     1  0.8644  3.6540  2.0410
641     1  0.8903  4.1138  2.0757
642     1  0.9161  4.5737  2.1105
643     1  0.9420  5.0335  2.1452
644     1  0.9679  5.4933  2.1800
645     1  0.9937  5.9532  2.2147
646     1  1.0196  6.4130  2.2495
647     1  1.0455  6.8729  2.2843
648     1  1.0713  7.3327  2.3190
649     1  1.0972  7.7926  2.3538
650     1  1.1230  8.2524  2.3885
651     1  1.1489  8.7122  2.4233
652     1  1.1748  9.1721  2.4581
653     1  1.2006  9.6319  2.4928
654     1  0.5695  3.1809  2.3814
655     1  0.5953  3.6407  2.4161
656     1  0.6212  4.1006  2.4509
657     1  0.6471  4.5604  2.4856
658     1  0.6729  5.0203  2.5204
659     1  0.6988  5.4801  2.5552
660     1  0.7246  5.9400  2.5899
661     1  0.7505  6.3998  2.6247
662     1  0.7764  6.8596  2.6594
663     1  0.8022  7.3195  2.6942
664     1  0.8281  7.7793  2.7290
665     1  0.8540  8.2392  2.7637
666     1  0.8798  8.6990  2.7985
667     1  0.9057  9.1589  2.8332
668     1  0.9315  9.6187  2.8680
669    11  0.2745  2.7078  2.7218
670     1  0.3004  3.1677  2.7565
671     1  0.3263  3.6275  2.7913
672     1  0.3521  4.0874  2.8261
673     1  0.3780  4.5472  2.8608
674     1  0.4038  5.0070  2.8956
675     1  0.4297  5.4669  2.9303
676     1  0.4556  5.9267  2.9651
677     1  0.4814  6.3866  2.9998
678     1  0.5073  6.8464  3.0346
679     1  0.5332  7.3063  3.0694
680     1  0.5590  7.7661  3.1041
681     1  0.5849  8.2260  3.1389
682     1  0.6107  8.6858  3.1736
683     1  0.6366  9.1456  3.2084
684     1  0.6625  9.6055  3.2432
685     1  0.0055  2.6946  3.0970
686     1  0.0313  3.1544  3.1317
687     1  0.0572  3.6143  3.1665
688     1  0.0830  4.0741  3.2012
689     1  0.1089  4.5340  3.2360
690     1  0.1348  4.9938  3.2707
691     1  0.1606  5.4537  3.3055
692     1  0.1865  5.9135  3.3403
693     1  0.2123  6.3734  3.3750
694     1  0.2382  6.8332  3.4098
695     1  0.2641  7.2930  3.4445
696     1  0.2899  7.7529  3.4793
697     1  0.3158  8.2127  3.5141
698     1  0.3417  8.6726  3.5488
699    11  0.3675  9.1324  3.5836
700     1  0.3934  9.5923  3.6183
701     1  0.0209  7.7397  3.8545
702    11  0.0467  8.1995  3.8892
703     1  0.0726  8.6593  3.9240
704    11  0.0984  9.1192  3.9587
705    11  0.1243  9.5790  3.9935
706    11  3.0205  7.6280  0.0314
707     1  2.5187  3.4762  0.0937
708     1  2.5446  3.9360  0.1285
709     1  2.5704  4.3958  0.1632
710     1  2.5963  4.8557  0.1980
711     1  2.6221  5.3155  0.2327
712     1  2.6480  5.7754  0.2675
713     1  2.6739  6.2352  0.3023
714     1  2.6997  6.6951  0.3370
715     1  2.7256  7.1549  0.3718
716     1  2.7515  7.6147  0.4065
717    11  2.7773  8.0746  0.4413
718    11  2.2496  3.4629  0.4689
719     1  2.2755  3.9228  0.5036
720     1  2.3013  4.3826  0.5384
721     1  2.3272  4.8425  0.5732
722     1  2.3531  5.3023  0.6079
723     1  2.3789  5.7621  0.6427
724     1  2.4048  6.2220  0.6774
725     1  2.4306  6.6818  0.7122
726     1  2.4565  7.1417  0.7469
727     1  2.4824  7.6015  0.7817
728     1  2.5082  8.0614  0.8165
729    11  2.5341  8.5212  0.8512
730    11  1.9805  3.4497  0.8441
731     1  2.0064  3.9095  0.8788
732     1  2.0323  4.3694  0.9136
733     1  2.0581  4.8292  0.9483
734     1  2.0840  5.2891  0.9831
735     1  2.1098  5.7489  1.0178
736     1  2.1357  6.2088  1.0526
737     1  2.1616  6.6686  1.0874
738     1  2.1874  7.1285  1.1221
739     1  2.2133  7.5883  1.1569
740     1  2.2392  8.0481  1.1916
741     1  2.2650  8.5080  1.2264
742    11  2.2909  8.9678  1.2612
743    11  1.6856  2.9766  1.1845
744     1  1.7115  3.4365  1.2192
745     1  1.7373  3.8963  1.2540
746     1  1.7632  4.3562  1.2887
747     1  1.7890  4.8160  1.3235
748     1  1.8149  5.2759  1.3583
749     1  1.8408  5.7357  1.3930
750     1  1.8666  6.1955  1.4278
751     1  1.8925  6.6554  1.4625
752     1  1.9183  7.1152  1.4973
753     1  1.9442  7.5751  1.5321
754     1  1.9701  8.0349  1.5668
755     1  1.9959  8.4948  1.6016
756     1  2.0218  8.9546  1.6363
757    11  2.0477  9.4144  1.6711
758    11  1.4165  2.9634  1.5596
759     1  1.4424  3.4233  1.5944
760     1  1.4682  3.8831  1.6292
761     1  1.4941  4.3429  1.6639
762     1  1.5200  4.8028  1.6987
763     1  1.5458  5.2626  1.7334
764     1  1.5717  5.7225  1.7682
765     1  1.5975  6.1823  1.8029
766     1  1.6234  6.6422  1.8377
767     1  1.6493  7.1020  1.8725
768     1  1.6751  7.5618  1.9072
769     1  1.7010  8.0217  1.9420
770     1  1.7268  8.4815  1.9767
771     1  1.7527  8.9414  2.0115
772     1  1.7786  9.4012  2.0463
773    11  1.8044  9.8611  2.0810
774    11  1.1474  2.9502  1.9348
775     1  1.1733  3.4100  1.9696
776     1  1.1992  3.8699  2.0043
777     1  1.2250  4.3297  2.0391
778     1  1.2509  4.7896  2.0738
779     1  1.2767  5.2494  2.1086
780     1  1.3026  5.7092  2.1434
781     1  1.3285  6.1691  2.1781
782     1  1.3543  6.6289  2.2129
783     1  1.3802  7.0888  2.2476
784     1  1.4060  7.5486  2.2824
785     1  1.4319  8.0085  2.3172
786     1  1.4578  8.4683  2.3519
787     1  1.4836  8.9282  2.3867
788     1  1.5095  9.3880  2.4214
789     1  1.5354  9.8478  2.4562
790    11  0.8783  2.9370  2.3100
791     1  0.9042  3.3968  2.3447
792     1  0.9301  3.8566  2.3795
793     1  0.9559  4.3165  2.4143
794     1  0.9818  4.7763  2.4490
795     1  1.0077  5.2362  2.4838
796     1  1.0335  5.6960  2.5185
797     1  1.0594  6.1559  2.5533
798     1  1.0852  6.6157  2.5880
799     1  1.1111  7.0756  2.6228
800     1  1.1370  7.5354  2.6576
801     1  1.1628  7.9952  2.6923
802     1  1.1887  8.4551  2.7271
803     1  1.2145  8.9149  2.7618
804     1  1.2404  9.3748  2.7966
805     1  1.2663  9.8346  2.8314
806    11  0.6093  2.9237  2.6852
807     1  0.6351  3.3836  2.7199
808     1  0.6610  3.8434  2.7547
809     1  0.6868  4.3033  2.7894
810     1  0.7127  4.7631  2.8242
811     1  0.7386  5.2230  2.8589
812     1  0.7644  5.6828  2.8937
813     1  0.7903  6.1426  2.9285
814     1  0.8162  6.6025  2.9632
815     1  0.8420  7.0623  2.9980
816     1  0.8679  7.5222  3.0327
817     1  0.8937  7.9820  3.0675
818     1  0.9196  8.4419  3.1023
819     1  0.9455  8.9017  3.1370
820     1  0.9713  9.3615  3.1718
821     1  0.9972  9.8214  3.2065
822    11  0.3143  2.4507  3.0256
823     1  0.3402  2.9105  3.0603
824     1  0.3660  3.3704  3.0951
825     1  0.3919  3.8302  3.1298
826     1  0.4178  4.2900  3.1646
827     1  0.4436  4.7499  3.1994
828     1  0.4695  5.2097  3.2341
829     1  0.4954  5.6696  3.2689
830     1  0.5212  6.1294  3.3036
831     1  0.5471  6.5893  3.3384
832     1  0.5729  7.0491  3.3731
833     1  0.5988  7.5089  3.4079
834     1  0.6247  7.9688  3.4427
835     1  0.6505  8.4286  3.4774
836     1  0.6764  8.8885  3.5122
837     1  0.7022  9.3483  3.5469
838    11  0.7281  9.8082  3.5817
839    11  0.0452  2.4374  3.4007
840     1  0.0711  2.8973  3.4355
841     1  0.0970  3.3571  3.4703
842     1  0.1228  3.8170  3.5050
843     1  0.1487  4.2768  3.5398
844     1  0.1745  4.7367  3.5745
845     1  0.2004  5.1965  3.6093
846     1  0.2263  5.6563  3.6440
847     1  0.2521  6.1162  3.6788
848     1  0.2780  6.5760  3.7136
849     1  0.3039  7.0359  3.7483
850     1  0.3297  7.4957  3.7831
851     1  0.3556  7.9556  3.8178
852     1  0.3814  8.4154  3.8526
853    11  0.4073  8.8753  3.8874
854    11  0.4332  9.3351  3.9221
855    11  0.4590  9.7949  3.9569
856     1  0.0089  6.5628  4.0887
857     1  0.0348  7.0227  4.1235
858    11  0.0606  7.4825  4.1582
859    11  0.0865  7.9423  4.1930
860    11  0.1124  8.4022  4.2278
861     1  0.1382  8.8620  4.2625
862    11  2.8276  3.2322  0.0223
863     1  2.8534  3.6921  0.0571
864     1  2.8793  4.1519  0.0918
865     1  2.9051  4.6117  0.1266
866     1  2.9310  5.0716  0.1614
867     1  2.9569  5.5314  0.1961
868     1  2.9827  5.9913  0.2309
869     1  3.0086  6.4511  0.2656
870    11  3.0345  6.9110  0.3004
871    11  3.0603  7.3708  0.3351
872    11  3.0862  7.8307  0.3699
873    11  2.5585  3.2190  0.3975
874     1  2.5843  3.6788  0.4323
875     1  2.6102  4.1387  0.4670
876     1  2.6361  4.5985  0.5018
877     1  2.6619  5.0584  0.5365
878     1  2.6878  5.5182  0.5713
879     1  2.7137  5.9781  0.6060
880     1  2.7395  6.4379  0.6408
881     1  2.7654  6.8977  0.6756