ITEM: TIMESTEP
1
ITEM: NUMBER OF ATOMS
19635
ITEM: BOX BOUNDS pp pp pp
 0.0 1.0
 0.0 1.0
 0.0 1.0
ITEM: ATOMS id type x y z 
1   101  0.2003  0.5096  0.2525
2   101  0.1734  0.5083  0.2900
3   101  0.2312  0.4852  0.2453
4   101  0.2043  0.4839  0.2828
5   101  0.2068  0.5299  0.2863
6   101  0.1774  0.4826  0.3204
7   101  0.1479  0.4353  0.3544
8   101  0.2621  0.4608  0.2382
9   101  0.2646  0.5068  0.2417
10   101  0.2351  0.4595  0.2757
11   101  0.2377  0.5055  0.2792
12   101  0.2403  0.5515  0.2827
13   101  0.2057  0.4122  0.3097
14   101  0.2082  0.4582  0.3132
15   101  0.2108  0.5042  0.3167
16   101  0.2134  0.5501  0.3202
17   101  0.2160  0.5961  0.3236
18   101  0.1787  0.4109  0.3473
19   101  0.1813  0.4569  0.3507
20   101  0.1839  0.5028  0.3542
21   101  0.1518  0.4095  0.3848
22   101  0.1544  0.4555  0.3883
23   101  0.2904  0.3904  0.2276
24   101  0.2929  0.4364  0.2310
25   101  0.2955  0.4824  0.2345
26   101  0.2634  0.3891  0.2651
27   101  0.2660  0.4351  0.2686
28   101  0.2686  0.4811  0.2720
29   101  0.2712  0.5271  0.2755
30   101  0.2365  0.3878  0.3026
31   101  0.2391  0.4338  0.3061
32     1  0.2417  0.4798  0.3096
33     1  0.2443  0.5258  0.3130
34   101  0.2469  0.5717  0.3165
35   101  0.2096  0.3865  0.3401
36   101  0.2122  0.4325  0.3436
37     1  0.2148  0.4784  0.3471
38     1  0.2174  0.5244  0.3506
39   101  0.2200  0.5704  0.3540
40   101  0.1827  0.3852  0.3776
41     1  0.1853  0.4311  0.3811
42   101  0.1879  0.4771  0.3846
43   101  0.1905  0.5231  0.3881
44   101  0.1931  0.5691  0.3915
45   101  0.1584  0.4298  0.4186
46   101  0.1610  0.4758  0.4221
47   101  0.3212  0.3660  0.2204
48   101  0.3238  0.4120  0.2239
49   101  0.3264  0.4580  0.2274
50   101  0.2943  0.3647  0.2580
51   101  0.2969  0.4107  0.2614
52     1  0.2995  0.4567  0.2649
53   101  0.3021  0.5027  0.2684
54   101  0.3047  0.5487  0.2719
55   101  0.2674  0.3634  0.2955
56   101  0.2700  0.4094  0.2989
57     1  0.2726  0.4554  0.3024
58     1  0.2752  0.5014  0.3059
59   101  0.2778  0.5473  0.3094
60   101  0.2804  0.5933  0.3128
61   101  0.2379  0.3161  0.3295
62   101  0.2405  0.3621  0.3330
63   101  0.2431  0.4081  0.3365
64     1  0.2457  0.4541  0.3399
65     1  0.2483  0.5000  0.3434
66     1  0.2509  0.5460  0.3469
67   101  0.2534  0.5920  0.3504
68   101  0.2110  0.3148  0.3670
69   101  0.2136  0.3608  0.3705
70     1  0.2162  0.4067  0.3740
71     1  0.2188  0.4527  0.3775
72     1  0.2214  0.4987  0.3809
73     1  0.2240  0.5447  0.3844
74   101  0.2265  0.5907  0.3879
75   101  0.1867  0.3594  0.4080
76     1  0.1893  0.4054  0.4115
77     1  0.1919  0.4514  0.4150
78   101  0.1945  0.4974  0.4184
79   101  0.1970  0.5434  0.4219
80   101  0.1624  0.4041  0.4490
81   101  0.1650  0.4501  0.4525
82   101  0.1676  0.4961  0.4560
83   101  0.3278  0.3863  0.2543
84   101  0.3304  0.4323  0.2578
85   101  0.3330  0.4783  0.2612
86   101  0.3356  0.5243  0.2647
87   101  0.2983  0.3390  0.2883
88   101  0.3009  0.3850  0.2918
89     1  0.3035  0.4310  0.2953
90     1  0.3061  0.4770  0.2988
91   101  0.3087  0.5229  0.3022
92   101  0.3112  0.5689  0.3057
93   101  0.2688  0.2917  0.3224
94   101  0.2714  0.3377  0.3258
95     1  0.2740  0.3837  0.3293
96     1  0.2766  0.4297  0.3328
97     1  0.2792  0.4756  0.3363
98     1  0.2817  0.5216  0.3397
99     1  0.2843  0.5676  0.3432
100   101  0.2869  0.6136  0.3467
101   101  0.2419  0.2904  0.3599
102   101  0.2445  0.3364  0.3634
103     1  0.2471  0.3823  0.3668
104     1  0.2497  0.4283  0.3703
105     1  0.2523  0.4743  0.3738
106     1  0.2548  0.5203  0.3773
107     1  0.2574  0.5663  0.3807
108   101  0.2176  0.3350  0.4009
109     1  0.2202  0.3810  0.4044
110     1  0.2228  0.4270  0.4078
111     1  0.2253  0.4730  0.4113
112     1  0.2279  0.5190  0.4148
113   101  0.2305  0.5650  0.4183
114   101  0.1933  0.3797  0.4419
115   101  0.1959  0.4257  0.4453
116   101  0.1984  0.4717  0.4488
117   101  0.2010  0.5177  0.4523
118   101  0.2036  0.5636  0.4558
119   101  0.1689  0.4244  0.4829
120   101  0.3613  0.4079  0.2506
121   101  0.3639  0.4539  0.2541
122   101  0.3665  0.4999  0.2576
123   101  0.3690  0.5459  0.2611
124   101  0.3318  0.3606  0.2847
125     1  0.3344  0.4066  0.2881
126     1  0.3370  0.4526  0.2916
127     1  0.3395  0.4986  0.2951
128   101  0.3421  0.5445  0.2986
129   101  0.3447  0.5905  0.3020
130   101  0.3023  0.3133  0.3187
131     1  0.3049  0.3593  0.3222
132     1  0.3075  0.4053  0.3257
133     1  0.3101  0.4512  0.3291
134     1  0.3126  0.4972  0.3326
135     1  0.3152  0.5432  0.3361
136   101  0.3178  0.5892  0.3396
137   101  0.2754  0.3120  0.3562
138     1  0.2780  0.3580  0.3597
139     1  0.2806  0.4039  0.3632
140     1  0.2831  0.4499  0.3667
141     1  0.2857  0.4959  0.3701
142     1  0.2883  0.5419  0.3736
143   101  0.2909  0.5879  0.3771
144   101  0.2485  0.3106  0.3937
145     1  0.2511  0.3566  0.3972
146     1  0.2536  0.4026  0.4007
147     1  0.2562  0.4486  0.4042
148     1  0.2588  0.4946  0.4076
149     1  0.2614  0.5406  0.4111
150   101  0.2640  0.5866  0.4146
151   101  0.2242  0.3553  0.4347
152     1  0.2267  0.4013  0.4382
153     1  0.2293  0.4473  0.4417
154     1  0.2319  0.4933  0.4452
155     1  0.2345  0.5392  0.4486
156   101  0.2371  0.5852  0.4521
157   101  0.1998  0.4000  0.4757
158   101  0.2024  0.4460  0.4792
159   101  0.2050  0.4919  0.4827
160   101  0.3653  0.3822  0.2810
161   101  0.3678  0.4282  0.2845
162     1  0.3704  0.4742  0.2880
163   101  0.3730  0.5201  0.2914
164   101  0.3756  0.5661  0.2949
165   101  0.3358  0.3349  0.3150
166     1  0.3384  0.3809  0.3185
167     1  0.3409  0.4269  0.3220
168     1  0.3435  0.4728  0.3255
169     1  0.3461  0.5188  0.3289
170   101  0.3487  0.5648  0.3324
171   101  0.3513  0.6108  0.3359
172   101  0.3063  0.2876  0.3491
173     1  0.3089  0.3336  0.3526
174     1  0.3114  0.3795  0.3560
175     1  0.3140  0.4255  0.3595
176     1  0.3166  0.4715  0.3630
177     1  0.3192  0.5175  0.3665
178     1  0.3218  0.5635  0.3699
179   101  0.3244  0.6095  0.3734
180   101  0.2794  0.2863  0.3866
181   101  0.2819  0.3322  0.3901
182     1  0.2845  0.3782  0.3936
183     1  0.2871  0.4242  0.3970
184     1  0.2897  0.4702  0.4005
185     1  0.2923  0.5162  0.4040
186     1  0.2949  0.5622  0.4075
187   101  0.2975  0.6081  0.4109
188   101  0.2550  0.3309  0.4276
189     1  0.2576  0.3769  0.4311
190     1  0.2602  0.4229  0.4345
191     1  0.2628  0.4689  0.4380
192     1  0.2654  0.5149  0.4415
193   101  0.2680  0.5608  0.4450
194   101  0.2706  0.6068  0.4485
195   101  0.2281  0.3296  0.4651
196     1  0.2307  0.3756  0.4686
197   101  0.2333  0.4216  0.4721
198   101  0.2359  0.4675  0.4755
199   101  0.2385  0.5135  0.4790
200   101  0.2411  0.5595  0.4825
201   101  0.2038  0.3743  0.5061
202   101  0.3987  0.4038  0.2773
203   101  0.4013  0.4498  0.2808
204   101  0.4039  0.4958  0.2843
205   101  0.4065  0.5417  0.2878
206   101  0.3692  0.3565  0.3114
207   101  0.3718  0.4025  0.3149
208     1  0.3744  0.4484  0.3183
209     1  0.3770  0.4944  0.3218
210   101  0.3796  0.5404  0.3253
211   101  0.3397  0.3092  0.3454
212     1  0.3423  0.3552  0.3489
213     1  0.3449  0.4011  0.3524
214     1  0.3475  0.4471  0.3559
215     1  0.3501  0.4931  0.3593
216     1  0.3527  0.5391  0.3628
217   101  0.3553  0.5851  0.3663
218   101  0.3128  0.3078  0.3829
219     1  0.3154  0.3538  0.3864
220     1  0.3180  0.3998  0.3899
221     1  0.3206  0.4458  0.3934
222     1  0.3232  0.4918  0.3968
223     1  0.3258  0.5378  0.4003
224     1  0.3284  0.5838  0.4038
225   101  0.3309  0.6297  0.4073
226   101  0.2859  0.3065  0.4205
227     1  0.2885  0.3525  0.4239
228     1  0.2911  0.3985  0.4274
229     1  0.2937  0.4445  0.4309
230     1  0.2963  0.4905  0.4344
231     1  0.2989  0.5364  0.4378
232   101  0.3014  0.5824  0.4413
233   101  0.2616  0.3512  0.4614
234     1  0.2642  0.3972  0.4649
235     1  0.2668  0.4432  0.4684
236     1  0.2694  0.4891  0.4719
237   101  0.2719  0.5351  0.4754
238   101  0.2745  0.5811  0.4788
239   101  0.2347  0.3499  0.4990
240   101  0.2373  0.3958  0.5024
241   101  0.2399  0.4418  0.5059
242   101  0.4027  0.3781  0.3077
243   101  0.4053  0.4241  0.3112
244   101  0.4079  0.4700  0.3147
245   101  0.4105  0.5160  0.3181
246   101  0.3732  0.3308  0.3418
247     1  0.3758  0.3767  0.3452
248     1  0.3784  0.4227  0.3487
249     1  0.3810  0.4687  0.3522
250   101  0.3836  0.5147  0.3557
251   101  0.3861  0.5607  0.3591
252   101  0.3437  0.2835  0.3758
253   101  0.3463  0.3294  0.3793
254     1  0.3489  0.3754  0.3828
255     1  0.3515  0.4214  0.3862
256     1  0.3541  0.4674  0.3897
257     1  0.3567  0.5134  0.3932
258   101  0.3592  0.5594  0.3967
259   101  0.3194  0.3281  0.4168
260     1  0.3220  0.3741  0.4203
261     1  0.3246  0.4201  0.4237
262     1  0.3272  0.4661  0.4272
263     1  0.3297  0.5121  0.4307
264     1  0.3323  0.5580  0.4342
265   101  0.3349  0.6040  0.4376
266   101  0.2925  0.3268  0.4543
267     1  0.2951  0.3728  0.4578
268     1  0.2977  0.4188  0.4613
269     1  0.3002  0.4647  0.4647
270     1  0.3028  0.5107  0.4682
271   101  0.3054  0.5567  0.4717
272   101  0.3080  0.6027  0.4752
273   101  0.2682  0.3715  0.4953
274   101  0.2708  0.4174  0.4988
275   101  0.2733  0.4634  0.5023
276   101  0.2759  0.5094  0.5057
277   101  0.4388  0.4456  0.3075
278   101  0.4414  0.4916  0.3110
279   101  0.4093  0.3983  0.3416
280   101  0.4119  0.4443  0.3450
281   101  0.4144  0.4903  0.3485
282   101  0.3772  0.3050  0.3721
283   101  0.3798  0.3510  0.3756
284   101  0.3824  0.3970  0.3791
285     1  0.3850  0.4430  0.3826
286     1  0.3875  0.4890  0.3860
287   101  0.3901  0.5350  0.3895
288   101  0.3529  0.3497  0.4131
289     1  0.3555  0.3957  0.4166
290     1  0.3580  0.4417  0.4201
291     1  0.3606  0.4877  0.4236
292     1  0.3632  0.5336  0.4270
293   101  0.3658  0.5796  0.4305
294   101  0.3260  0.3484  0.4506
295     1  0.3286  0.3944  0.4541
296     1  0.3311  0.4404  0.4576
297     1  0.3337  0.4863  0.4611
298   101  0.3363  0.5323  0.4646
299   101  0.3389  0.5783  0.4680
300   101  0.3415  0.6243  0.4715
301   101  0.2991  0.3471  0.4882
302   101  0.3016  0.3930  0.4916
303   101  0.3042  0.4390  0.4951
304   101  0.3068  0.4850  0.4986
305   101  0.3094  0.5310  0.5021
306   101  0.3120  0.5770  0.5055
307   101  0.2747  0.3917  0.5292
308   101  0.4453  0.4659  0.3414
309   101  0.4158  0.4186  0.3754
310   101  0.4184  0.4646  0.3789
311   101  0.4210  0.5106  0.3824
312   101  0.3838  0.3253  0.4060
313   101  0.3863  0.3713  0.4095
314   101  0.3889  0.4173  0.4129
315     1  0.3915  0.4633  0.4164
316   101  0.3941  0.5092  0.4199
317   101  0.3967  0.5552  0.4234
318     1  0.3594  0.3700  0.4470
319     1  0.3620  0.4160  0.4505
320   101  0.3646  0.4619  0.4539
321   101  0.3672  0.5079  0.4574
322   101  0.3698  0.5539  0.4609
323   101  0.3724  0.5999  0.4644
324   101  0.3325  0.3687  0.4845
325     1  0.3351  0.4146  0.4880
326   101  0.3377  0.4606  0.4915
327   101  0.3403  0.5066  0.4949
328   101  0.3429  0.5526  0.4984
329   101  0.3455  0.5986  0.5019
330   101  0.3056  0.3673  0.5220
331   101  0.3082  0.4133  0.5255
332   101  0.3108  0.4593  0.5290
333   101  0.4519  0.4862  0.3752
334   101  0.4224  0.4389  0.4093
335   101  0.4250  0.4849  0.4128
336   101  0.3903  0.3456  0.4398
337   101  0.3929  0.3916  0.4433
338   101  0.3955  0.4375  0.4468
339   101  0.3981  0.4835  0.4503
340   101  0.4007  0.5295  0.4537
341   101  0.3660  0.3902  0.4808
342   101  0.3686  0.4362  0.4843
343   101  0.3712  0.4822  0.4878
344   101  0.3391  0.3889  0.5184
345   101  0.3417  0.4349  0.5218
346   101  0.4264  0.4132  0.4397
347   101  0.4290  0.4591  0.4431
348   101  0.4316  0.5051  0.4466
349   101  0.3969  0.3658  0.4737
350   101  0.3995  0.4118  0.4772
351   101  0.4669  0.5973  0.6884
352   101  0.4172  0.5551  0.6927
353   101  0.4254  0.5977  0.7087
354   101  0.3757  0.5555  0.7130
355   101  0.4846  0.5243  0.6735
356   101  0.4928  0.5669  0.6895
357   101  0.4431  0.5247  0.6938
358   101  0.4513  0.5673  0.7097
359   101  0.4595  0.6098  0.7257
360   101  0.3934  0.4825  0.6981
361   101  0.4016  0.5251  0.7140
362   101  0.4098  0.5677  0.7300
363   101  0.4180  0.6102  0.7459
364   101  0.3601  0.5255  0.7343
365   101  0.3683  0.5680  0.7503
366   101  0.5521  0.4935  0.6543
367   101  0.5602  0.5360  0.6702
368   101  0.5024  0.4513  0.6586
369   101  0.5106  0.4939  0.6746
370   101  0.5187  0.5364  0.6905
371   101  0.5269  0.5790  0.7065
372   101  0.4609  0.4517  0.6789
373   101  0.4691  0.4942  0.6948
374     2  0.4772  0.5368  0.7108
375   101  0.4854  0.5794  0.7267
376   101  0.4936  0.6219  0.7427
377   101  0.4112  0.4095  0.6832
378   101  0.4194  0.4521  0.6992
379   101  0.4275  0.4946  0.7151
380   101  0.4357  0.5372  0.7310
381     2  0.4439  0.5798  0.7470
382   101  0.4521  0.6223  0.7629
383   101  0.3860  0.4950  0.7354
384   101  0.3942  0.5376  0.7513
385   101  0.4024  0.5802  0.7673
386   101  0.3527  0.5380  0.7716
387   101  0.5862  0.5056  0.6713
388   101  0.5283  0.4208  0.6597
389   101  0.5365  0.4634  0.6756
390   101  0.5447  0.5060  0.6916
391   101  0.5529  0.5485  0.7075
392   101  0.4868  0.4212  0.6799
393   101  0.4950  0.4638  0.6959
394     2  0.5032  0.5064  0.7118
395     2  0.5114  0.5489  0.7278
396   101  0.5196  0.5915  0.7437
397   101  0.4453  0.4216  0.7002
398     2  0.4535  0.4642  0.7162
399     2  0.4617  0.5068  0.7321
400     2  0.4699  0.5493  0.7480
401   101  0.4780  0.5919  0.7640
402   101  0.4038  0.4220  0.7205
403   101  0.4120  0.4646  0.7364
404     2  0.4202  0.5072  0.7524
405     2  0.4284  0.5497  0.7683
406   101  0.4365  0.5923  0.7843
407   101  0.3787  0.5076  0.7726
408   101  0.3869  0.5501  0.7886
409   101  0.3950  0.5927  0.8045
410   101  0.5624  0.4330  0.6767
411   101  0.5706  0.4755  0.6926
412   101  0.5788  0.5181  0.7086
413   101  0.5127  0.3908  0.6810
414   101  0.5209  0.4334  0.6969
415     2  0.5291  0.4759  0.7129
416     2  0.5373  0.5185  0.7288
417   101  0.5455  0.5611  0.7448
418   101  0.4712  0.3912  0.7013
419     2  0.4794  0.4338  0.7172
420     2  0.4876  0.4763  0.7332
421     2  0.4958  0.5189  0.7491
422     2  0.5040  0.5615  0.7650
423   101  0.5122  0.6040  0.7810
424   101  0.4297  0.3916  0.7215
425     2  0.4379  0.4342  0.7375
426     2  0.4461  0.4767  0.7534
427     2  0.4543  0.5193  0.7694
428     2  0.4625  0.5619  0.7853
429   101  0.4707  0.6044  0.8013
430   101  0.3964  0.4345  0.7577
431   101  0.4046  0.4771  0.7737
432     2  0.4128  0.5197  0.7896
433     2  0.4210  0.5622  0.8056
434   101  0.4292  0.6048  0.8215
435   101  0.3631  0.4775  0.7940
436   101  0.3713  0.5201  0.8099
437   101  0.6047  0.4877  0.7096
438   101  0.5468  0.4029  0.6980
439   101  0.5550  0.4455  0.7139
440     2  0.5632  0.4881  0.7299
441   101  0.5714  0.5306  0.7458
442   101  0.5053  0.4033  0.7183
443     2  0.5135  0.4459  0.7342
444     2  0.5217  0.4884  0.7502
445     2  0.5299  0.5310  0.7661
446   101  0.5381  0.5736  0.7820
447   101  0.5463  0.6162  0.7980
448   101  0.4638  0.4037  0.7385
449     2  0.4720  0.4463  0.7545
450     2  0.4802  0.4888  0.7704
451     2  0.4884  0.5314  0.7864
452     2  0.4966  0.5740  0.8023
453   101  0.4223  0.4041  0.7588
454     2  0.4305  0.4467  0.7747
455     2  0.4387  0.4892  0.7907
456     2  0.4469  0.5318  0.8066
457     2  0.4551  0.5744  0.8226
458   101  0.3890  0.4471  0.7950
459     2  0.3972  0.4896  0.8109
460   101  0.4054  0.5322  0.8269
461   101  0.4136  0.5748  0.8428
462   101  0.5809  0.4150  0.7150
463   101  0.5891  0.4576  0.7309
464   101  0.5973  0.5002  0.7469
465     2  0.5394  0.4154  0.7353
466     2  0.5476  0.4580  0.7512
467     2  0.5558  0.5006  0.7671
468   101  0.5640  0.5431  0.7831
469   101  0.4898  0.3733  0.7396
470     2  0.4979  0.4158  0.7555
471     2  0.5061  0.4584  0.7715
472     2  0.5143  0.5010  0.7874
473     2  0.5225  0.5435  0.8034
474   101  0.5307  0.5861  0.8193
475   101  0.4482  0.3737  0.7598
476     2  0.4564  0.4162  0.7758
477     2  0.4646  0.4588  0.7917
478     2  0.4728  0.5014  0.8077
479     2  0.4810  0.5439  0.8236
480   101  0.4892  0.5865  0.8396
481   101  0.4067  0.3741  0.7801
482   101  0.4149  0.4166  0.7961
483     2  0.4231  0.4592  0.8120
484     2  0.4313  0.5018  0.8279
485   101  0.4395  0.5443  0.8439
486   101  0.4477  0.5869  0.8598
487   101  0.3816  0.4596  0.8323
488   101  0.3898  0.5022  0.8482
489   101  0.6233  0.4697  0.7479
490   101  0.5654  0.3850  0.7363
491     2  0.5736  0.4276  0.7523
492     2  0.5818  0.4701  0.7682
493   101  0.5899  0.5127  0.7841
494     2  0.5239  0.3854  0.7566
495     2  0.5321  0.4280  0.7725
496     2  0.5403  0.4705  0.7885
497     2  0.5484  0.5131  0.8044
498   101  0.5566  0.5557  0.8204
499   101  0.4824  0.3858  0.7768
500     2  0.4906  0.4284  0.7928
501     2  0.4987  0.4709  0.8087
502     2  0.5069  0.5135  0.8247
503   101  0.5151  0.5561  0.8406
504   101  0.5233  0.5986  0.8566
505     2  0.4409  0.3862  0.7971
506     2  0.4491  0.4288  0.8131
507     2  0.4572  0.4713  0.8290
508     2  0.4654  0.5139  0.8449
509     2  0.4736  0.5565  0.8609
510   101  0.3994  0.3866  0.8174
511   101  0.4076  0.4291  0.8333
512     2  0.4157  0.4717  0.8493
513     2  0.4239  0.5143  0.8652
514   101  0.4321  0.5568  0.8812
515   101  0.3661  0.4295  0.8536
516   101  0.5995  0.3971  0.7533
517   101  0.6077  0.4397  0.7693
518   101  0.6159  0.4823  0.7852
519     2  0.5580  0.3975  0.7736
520     2  0.5662  0.4401  0.7895
521   101  0.5744  0.4827  0.8055
522   101  0.5826  0.5252  0.8214
523   101  0.5083  0.3553  0.7779
524     2  0.5165  0.3979  0.7938
525     2  0.5247  0.4405  0.8098
526     2  0.5329  0.4830  0.8257
527   101  0.5411  0.5256  0.8417
528   101  0.5492  0.5682  0.8576
529   101  0.4668  0.3557  0.7982
530     2  0.4750  0.3983  0.8141
531     2  0.4832  0.4409  0.8301
532     2  0.4914  0.4834  0.8460
533     2  0.4996  0.5260  0.8619
534   101  0.5077  0.5686  0.8779
535   101  0.4253  0.3561  0.8184
536   101  0.4335  0.3987  0.8344
537     2  0.4417  0.4413  0.8503
538     2  0.4499  0.4838  0.8663
539   101  0.4581  0.5264  0.8822
540   101  0.4662  0.5690  0.8982
541   101  0.3920  0.3991  0.8546
542   101  0.4002  0.4417  0.8706
543   101  0.4084  0.4842  0.8865
544   101  0.6336  0.4092  0.7703
545   101  0.6418  0.4518  0.7863
546   101  0.5839  0.3671  0.7746
547     2  0.5921  0.4096  0.7906
548   101  0.6003  0.4522  0.8065
549   101  0.6085  0.4948  0.8225
550   101  0.5424  0.3675  0.7949
551     2  0.5506  0.4100  0.8108
552     2  0.5588  0.4526  0.8268
553   101  0.5670  0.4952  0.8427
554   101  0.5752  0.5377  0.8587
555   101  0.5009  0.3679  0.8152
556     2  0.5091  0.4104  0.8311
557     2  0.5173  0.4530  0.8471
558     2  0.5255  0.4956  0.8630
559   101  0.5337  0.5381  0.8789
560   101  0.5419  0.5807  0.8949
561   101  0.4594  0.3683  0.8354
562   101  0.4676  0.4108  0.8514
563     2  0.4758  0.4534  0.8673
564     2  0.4840  0.4960  0.8833
565     2  0.4922  0.5385  0.8992
566   101  0.5004  0.5811  0.9152
567   101  0.4261  0.4112  0.8716
568   101  0.4343  0.4538  0.8876
569   101  0.4425  0.4964  0.9035
570   101  0.4507  0.5389  0.9195
571   101  0.4589  0.5815  0.9354
572   101  0.6180  0.3792  0.7916
573   101  0.6262  0.4218  0.8076
574   101  0.6344  0.4643  0.8235
575   101  0.5683  0.3370  0.7960
576   101  0.5765  0.3796  0.8119
577     2  0.5847  0.4222  0.8278
578   101  0.5929  0.4647  0.8438
579   101  0.6011  0.5073  0.8597
580   101  0.5268  0.3374  0.8162
581     2  0.5350  0.3800  0.8322
582     2  0.5432  0.4226  0.8481
583     2  0.5514  0.4651  0.8641
584   101  0.5596  0.5077  0.8800
585   101  0.5678  0.5503  0.8959
586   101  0.4853  0.3378  0.8365
587   101  0.4935  0.3804  0.8524
588     2  0.5017  0.4230  0.8684
589     2  0.5099  0.4655  0.8843
590     2  0.5181  0.5081  0.9003
591   101  0.5263  0.5507  0.9162
592   101  0.4520  0.3808  0.8727
593   101  0.4602  0.4234  0.8886
594   101  0.4684  0.4659  0.9046
595   101  0.4766  0.5085  0.9205
596   101  0.4848  0.5511  0.9365
597   101  0.4269  0.4663  0.9249
598   101  0.6106  0.3917  0.8289
599   101  0.6188  0.4343  0.8448
600   101  0.6270  0.4769  0.8608
601   101  0.5610  0.3495  0.8332
602   101  0.5691  0.3921  0.8492
603   101  0.5773  0.4347  0.8651
604   101  0.5855  0.4773  0.8811
605   101  0.5937  0.5198  0.8970
606   101  0.5194  0.3499  0.8535
607   101  0.5276  0.3925  0.8694
608     2  0.5358  0.4351  0.8854
609   101  0.5440  0.4776  0.9013
610   101  0.5522  0.5202  0.9173
611   101  0.5604  0.5628  0.9332
612   101  0.4861  0.3929  0.8897
613   101  0.4943  0.4355  0.9056
614   101  0.5025  0.4780  0.9216
615     2  0.5107  0.5206  0.9375
616   101  0.5189  0.5632  0.9535
617   101  0.4610  0.4784  0.9419
618   101  0.4692  0.5210  0.9578
619   101  0.4774  0.5636  0.9737
620   101  0.6196  0.4894  0.8981
621   101  0.5536  0.3621  0.8705
622   101  0.5618  0.4046  0.8864
623   101  0.5699  0.4472  0.9024
624   101  0.5781  0.4898  0.9183
625   101  0.5863  0.5323  0.9343
626   101  0.5121  0.3625  0.8908
627   101  0.5203  0.4050  0.9067
628   101  0.5284  0.4476  0.9226
629   101  0.5366  0.4902  0.9386
630   101  0.5448  0.5327  0.9545
631   101  0.4869  0.4480  0.9429
632   101  0.4951  0.4906  0.9589
633   101  0.5033  0.5331  0.9748
634   101  0.5626  0.4597  0.9396
635   101  0.5708  0.5023  0.9556
636   101  0.5211  0.4601  0.9599
637   101  0.5293  0.5027  0.9759
638   101  0.4878  0.5031  0.9961
639   101  0.6611  0.9906  0.5042
640   101  0.6429  0.9874  0.5465
641   101  0.6248  0.9842  0.5889
642   101  0.6822  0.9619  0.4859
643   101  0.6640  0.9587  0.5282
644   101  0.6304  0.9132  0.5607
645   101  0.6459  0.9556  0.5706
646   101  0.6614  0.9979  0.5804
647   101  0.6277  0.9524  0.6129
648   101  0.7370  0.9788  0.4351
649   101  0.7033  0.9333  0.4676
650     3  0.7188  0.9757  0.4774
651   101  0.6851  0.9301  0.5099
652   101  0.7006  0.9725  0.5198
653   101  0.6515  0.8845  0.5425
654   101  0.6670  0.9269  0.5523
655     3  0.6825  0.9693  0.5621
656   101  0.6333  0.8814  0.5848
657   101  0.6488  0.9237  0.5946
658   101  0.6643  0.9661  0.6045
659   101  0.6306  0.9206  0.6370
660   101  0.7244  0.9046  0.4493
661   101  0.7399  0.9470  0.4591
662   101  0.7554  0.9894  0.4690
663   101  0.7062  0.9015  0.4916
664     3  0.7217  0.9438  0.5015
665     3  0.7372  0.9862  0.5113
666   101  0.6726  0.8559  0.5242
667     3  0.6881  0.8983  0.5340
668     3  0.7036  0.9407  0.5438
669     3  0.7191  0.9830  0.5537
670   101  0.6544  0.8527  0.5665
671   101  0.6699  0.8951  0.5763
672     3  0.6854  0.9375  0.5862
673   101  0.7009  0.9799  0.5960
674   101  0.6207  0.8071  0.5990
675   101  0.6362  0.8495  0.6089
676   101  0.6517  0.8919  0.6187
677   101  0.6672  0.9343  0.6285
678   101  0.6827  0.9767  0.6384
679   101  0.7610  0.9184  0.4408
680   101  0.7765  0.9608  0.4507
681   101  0.7118  0.8304  0.4635
682   101  0.7273  0.8728  0.4734
683   101  0.7428  0.9152  0.4832
684     3  0.7583  0.9576  0.4930
685     3  0.7738  1.0000  0.5029
686   101  0.6936  0.8273  0.5059
687   101  0.7092  0.8696  0.5157
688     3  0.7247  0.9120  0.5255
689     3  0.7402  0.9544  0.5354
690     3  0.7557  0.9968  0.5452
691   101  0.6600  0.7817  0.5384
692   101  0.6755  0.8241  0.5482
693     3  0.6910  0.8665  0.5580
694     3  0.7065  0.9088  0.5679
695     3  0.7220  0.9512  0.5777
696     3  0.7375  0.9936  0.5876
697   101  0.6418  0.7785  0.5807
698   101  0.6573  0.8209  0.5906
699     3  0.6728  0.8633  0.6004
700     3  0.6883  0.9057  0.6102
701     3  0.7038  0.9480  0.6201
702   101  0.7193  0.9904  0.6299
703   101  0.6392  0.8177  0.6329
704   101  0.6547  0.8601  0.6427
705   101  0.6702  0.9025  0.6526
706   101  0.6857  0.9449  0.6624
707   101  0.7484  0.8442  0.4551
708   101  0.7639  0.8866  0.4649
709     3  0.7794  0.9289  0.4747
710   101  0.7949  0.9713  0.4846
711   101  0.7147  0.7986  0.4876
712     3  0.7303  0.8410  0.4974
713     3  0.7458  0.8834  0.5072
714     3  0.7613  0.9258  0.5171
715     3  0.7768  0.9681  0.5269
716   101  0.6966  0.7954  0.5299
717     3  0.7121  0.8378  0.5398
718     3  0.7276  0.8802  0.5496
719     3  0.7431  0.9226  0.5594
720     3  0.7586  0.9650  0.5693
721   101  0.6784  0.7922  0.5723
722     3  0.6939  0.8346  0.5821
723     3  0.7094  0.8770  0.5919
724     3  0.7249  0.9194  0.6018
725     3  0.7404  0.9618  0.6116
726   101  0.6603  0.7891  0.6146
727     3  0.6758  0.8314  0.6245
728     3  0.6913  0.8738  0.6343
729     3  0.7068  0.9162  0.6441
730   101  0.7223  0.9586  0.6540
731   101  0.6576  0.8283  0.6668
732   101  0.6731  0.8706  0.6766
733   101  0.6886  0.9130  0.6865
734   101  0.7695  0.8155  0.4368
735   101  0.7850  0.8579  0.4466
736   101  0.8005  0.9003  0.4564
737   101  0.8160  0.9427  0.4663
738   101  0.8315  0.9851  0.4761
739   101  0.7513  0.8123  0.4791
740   101  0.7669  0.8547  0.4890
741     3  0.7824  0.8971  0.4988
742     3  0.7979  0.9395  0.5086
743   101  0.8134  0.9819  0.5185
744     3  0.7332  0.8092  0.5215
745     3  0.7487  0.8515  0.5313
746     3  0.7642  0.8939  0.5411
747     3  0.7797  0.9363  0.5510
748     3  0.7952  0.9787  0.5608
749   101  0.6995  0.7636  0.5540
750     3  0.7150  0.8060  0.5638
751     3  0.7305  0.8484  0.5736
752     3  0.7460  0.8907  0.5835
753     3  0.7615  0.9331  0.5933
754     3  0.7770  0.9755  0.6031
755   101  0.6814  0.7604  0.5963
756     3  0.6969  0.8028  0.6062
757     3  0.7124  0.8452  0.6160
758     3  0.7279  0.8876  0.6258
759     3  0.7434  0.9299  0.6357
760   101  0.7589  0.9723  0.6455
761   101  0.6787  0.7996  0.6485
762   101  0.6942  0.8420  0.6583
763   101  0.7097  0.8844  0.6682
764   101  0.7252  0.9268  0.6780
765   101  0.6915  0.8812  0.7105
766   101  0.8371  0.9140  0.4480
767   101  0.8526  0.9564  0.4578
768   101  0.7879  0.8261  0.4707
769     3  0.8035  0.8685  0.4805
770   101  0.8190  0.9109  0.4903
771   101  0.8345  0.9532  0.5002
772   101  0.8500  0.9956  0.5100
773   101  0.7543  0.7805  0.5032
774     3  0.7698  0.8229  0.5130
775     3  0.7853  0.8653  0.5228
776     3  0.8008  0.9077  0.5327
777     3  0.8163  0.9501  0.5425
778   101  0.8318  0.9924  0.5523
779   101  0.7361  0.7773  0.5455
780     3  0.7516  0.8197  0.5554
781     3  0.7671  0.8621  0.5652
782     3  0.7826  0.9045  0.5750
783     3  0.7981  0.9469  0.5849
784     3  0.8136  0.9893  0.5947
785   101  0.7180  0.7742  0.5879
786     3  0.7335  0.8165  0.5977
787     3  0.7490  0.8589  0.6075
788     3  0.7645  0.9013  0.6174
789     3  0.7800  0.9437  0.6272
790     3  0.7955  0.9861  0.6370
791   101  0.6998  0.7710  0.6302
792     3  0.7153  0.8134  0.6400
793     3  0.7308  0.8557  0.6499
794     3  0.7463  0.8981  0.6597
795   101  0.7618  0.9405  0.6696
796   101  0.7773  0.9829  0.6794
797   101  0.6971  0.8102  0.6824
798   101  0.7126  0.8526  0.6922
799   101  0.7281  0.8949  0.7021
800   101  0.8090  0.7974  0.4524
801   101  0.8245  0.8398  0.4622
802   101  0.8401  0.8822  0.4720
803   101  0.8556  0.9246  0.4819
804   101  0.7909  0.7943  0.4947
805     3  0.8064  0.8366  0.5045
806     3  0.8219  0.8790  0.5144
807     3  0.8374  0.9214  0.5242
808   101  0.8529  0.9638  0.5341
809     3  0.7727  0.7911  0.5371
810     3  0.7882  0.8335  0.5469
811     3  0.8037  0.8758  0.5567
812     3  0.8192  0.9182  0.5666
813     3  0.8347  0.9606  0.5764
814   101  0.7391  0.7455  0.5696
815     3  0.7546  0.7879  0.5794
816     3  0.7701  0.8303  0.5892
817     3  0.7856  0.8727  0.5991
818     3  0.8011  0.9150  0.6089
819     3  0.8166  0.9574  0.6187
820   101  0.8321  0.9998  0.6286
821   101  0.7209  0.7423  0.6119
822     3  0.7364  0.7847  0.6218
823     3  0.7519  0.8271  0.6316
824     3  0.7674  0.8695  0.6414
825     3  0.7829  0.9119  0.6513
826   101  0.7984  0.9542  0.6611
827   101  0.8139  0.9966  0.6709
828   101  0.7182  0.7815  0.6641
829     3  0.7337  0.8239  0.6739
830     3  0.7492  0.8663  0.6838
831     3  0.7647  0.9087  0.6936
832   101  0.7803  0.9511  0.7034
833   101  0.7311  0.8631  0.7261
834   101  0.8456  0.8112  0.4439
835   101  0.8612  0.8536  0.4537
836   101  0.8275  0.8080  0.4863
837     3  0.8430  0.8504  0.4961
838   101  0.8585  0.8928  0.5059
839   101  0.7938  0.7624  0.5188
840     3  0.8093  0.8048  0.5286
841     3  0.8248  0.8472  0.5384
842     3  0.8403  0.8896  0.5483
843     3  0.8558  0.9320  0.5581
844   101  0.8713  0.9744  0.5679
845   101  0.7757  0.7593  0.5611
846     3  0.7912  0.8016  0.5710
847     3  0.8067  0.8440  0.5808
848     3  0.8222  0.8864  0.5906
849   101  0.8377  0.9288  0.6005
850   101  0.8532  0.9712  0.6103
851   101  0.7575  0.7561  0.6035
852     3  0.7730  0.7985  0.6133
853     3  0.7885  0.8408  0.6231
854     3  0.8040  0.8832  0.6330
855     3  0.8195  0.9256  0.6428
856     3  0.8350  0.9680  0.6526
857   101  0.7238  0.7105  0.6360
858   101  0.7393  0.7529  0.6458
859   101  0.7548  0.7953  0.6556
860     3  0.7703  0.8377  0.6655
861     3  0.7858  0.8800  0.6753
862   101  0.8013  0.9224  0.6851
863   101  0.8169  0.9648  0.6950
864   101  0.7522  0.8345  0.7078
865   101  0.7677  0.8769  0.7177
866   101  0.7832  0.9192  0.7275
867   101  0.8641  0.8217  0.4778
868   101  0.8796  0.8641  0.4876
869   101  0.8304  0.7762  0.5103
870   101  0.8459  0.8186  0.5201
871     3  0.8614  0.8609  0.5300
872   101  0.8769  0.9033  0.5398
873   101  0.8123  0.7730  0.5527
874     3  0.8278  0.8154  0.5625
875     3  0.8433  0.8578  0.5723
876     3  0.8588  0.9001  0.5822
877   101  0.8743  0.9425  0.5920
878   101  0.7786  0.7274  0.5852
879     3  0.7941  0.7698  0.5950
880     3  0.8096  0.8122  0.6048
881     3  0.8251  0.8546  0.6147