ITEM: TIMESTEP
1
ITEM: NUMBER OF ATOMS
20021
ITEM: BOX BOUNDS pp pp pp
  0.0000  1.0000
  0.0000  1.0000
  0.0000  1.0000
ITEM: ATOMS id type x y z dx dy dz
1    11      0.0125      0.9888      0.0022 -0.1000E-02  0.1000E-02 -0.1000E-02
2     1      0.0010      0.6865      0.0117 -0.1000E-02  0.3806E-03 -0.1000E-02
3     1      0.0036      0.7326      0.0152 -0.1000E-02  0.4505E-03 -0.1000E-02
4     1      0.0062      0.7787      0.0186 -0.1000E-02  0.5382E-03 -0.1000E-02
5     1      0.0088      0.8247      0.0221 -0.1000E-02  0.6099E-03 -0.1000E-02
6     1      0.0113      0.8708      0.0256 -0.1000E-02  0.6977E-03 -0.1000E-02
7     1      0.0139      0.9169      0.0291 -0.1000E-02  0.8156E-03 -0.1000E-02
8     1      0.0165      0.9631      0.0325 -0.1000E-02  0.1000E-02 -0.1000E-02
9     1      0.0293      0.6160      0.0011 -0.1000E-02  0.2534E-03 -0.1000E-02
10     1      0.0319      0.6621      0.0045 -0.1000E-02  0.3440E-03 -0.1000E-02
11     1      0.0345      0.7082      0.0080 -0.1000E-02  0.4268E-03 -0.1000E-02
12     1      0.0371      0.7542      0.0115 -0.1000E-02  0.5002E-03 -0.1000E-02
13     1      0.0397      0.8003      0.0150 -0.9502E-03  0.5800E-03 -0.1000E-02
14     1      0.0423      0.8464      0.0184 -0.9442E-03  0.6570E-03 -0.1000E-02
15     1      0.0449      0.8924      0.0219 -0.9478E-03  0.7516E-03 -0.1000E-02
16     1      0.0474      0.9386      0.0254 -0.9476E-03  0.8780E-03 -0.1000E-02
17    11      0.0501      0.9847      0.0289 -0.9102E-03  0.1000E-02 -0.1000E-02
18     1     -0.0002      0.5686      0.0351 -0.1000E-02  0.1292E-03 -0.1000E-02
19     1      0.0024      0.6147      0.0386 -0.1000E-02  0.2195E-03 -0.1000E-02
20     1      0.0050      0.6608      0.0421 -0.1000E-02  0.3350E-03 -0.9449E-03
21     1      0.0076      0.7068      0.0456 -0.1000E-02  0.4128E-03 -0.9597E-03
22     1      0.0101      0.7529      0.0490 -0.1000E-02  0.4870E-03 -0.9613E-03
23     1      0.0127      0.7990      0.0525 -0.1000E-02  0.5698E-03 -0.9575E-03
24     1      0.0153      0.8450      0.0560 -0.1000E-02  0.6580E-03 -0.9561E-03
25     1      0.0179      0.8911      0.0595 -0.1000E-02  0.7619E-03 -0.9596E-03
26     1      0.0205      0.9372      0.0629 -0.1000E-02  0.8908E-03 -0.9678E-03
27     1      0.0231      0.9833      0.0664 -0.1000E-02  0.1000E-02 -0.9364E-03
28     1      0.0654      0.6837      0.0009 -0.1002E-02  0.3849E-03 -0.1000E-02
29     1      0.0680      0.7298      0.0044 -0.9818E-03  0.4629E-03 -0.1000E-02
30     1      0.0706      0.7759      0.0078 -0.9467E-03  0.5408E-03 -0.1000E-02
31     1      0.0732      0.8219      0.0113 -0.9087E-03  0.6257E-03 -0.1000E-02
32     1      0.0758      0.8680      0.0148 -0.9052E-03  0.7051E-03 -0.1000E-02
33     1      0.0784      0.9141      0.0183 -0.9084E-03  0.7914E-03 -0.1000E-02
34    11      0.0810      0.9602      0.0217 -0.8750E-03  0.8935E-03 -0.1000E-02
35    11      0.0255      0.4519      0.0210 -0.1000E-02 -0.1734E-03 -0.1000E-02
36    11      0.0281      0.4981      0.0245 -0.1000E-02 -0.2871E-04 -0.1000E-02
37     1      0.0307      0.5442      0.0280 -0.1000E-02  0.7729E-04 -0.1000E-02
38     1      0.0333      0.5903      0.0314 -0.1000E-02  0.1799E-03 -0.1000E-02
39     1      0.0359      0.6363      0.0349 -0.1000E-02  0.2760E-03 -0.1000E-02
40     1      0.0384      0.6824      0.0384 -0.1000E-02  0.3677E-03 -0.1000E-02
41     1      0.0411      0.7285      0.0419 -0.9503E-03  0.4489E-03 -0.9518E-03
42     1      0.0437      0.7745      0.0454 -0.9486E-03  0.5293E-03 -0.9466E-03
43     1      0.0463      0.8206      0.0489 -0.9474E-03  0.6165E-03 -0.9398E-03
44     1      0.0488      0.8667      0.0524 -0.9529E-03  0.7081E-03 -0.9387E-03
45     1      0.0514      0.9128      0.0558 -0.9587E-03  0.8165E-03 -0.9421E-03
46     1      0.0540      0.9589      0.0593 -0.9457E-03  0.9334E-03 -0.9372E-03
47     1      0.0012      0.4968      0.0622 -0.1000E-02  0.6603E-05 -0.8211E-03
48     1      0.0038      0.5429      0.0656 -0.1000E-02  0.1109E-03 -0.9010E-03
49     1      0.0064      0.5889      0.0690 -0.1000E-02  0.1811E-03 -0.9493E-03
50     1      0.0089      0.6350      0.0725 -0.1000E-02  0.2541E-03 -0.9448E-03
51     1      0.0115      0.6811      0.0760 -0.1000E-02  0.3549E-03 -0.9204E-03
52     1      0.0141      0.7271      0.0795 -0.1000E-02  0.4365E-03 -0.9165E-03
53     1      0.0167      0.7732      0.0829 -0.1000E-02  0.5209E-03 -0.9118E-03
54     1      0.0193      0.8193      0.0864 -0.1000E-02  0.6123E-03 -0.9049E-03
55     1      0.0219      0.8654      0.0899 -0.1000E-02  0.7157E-03 -0.9017E-03
56     1      0.0245      0.9115      0.0934 -0.1000E-02  0.8270E-03 -0.9037E-03
57     1      0.0271      0.9575      0.0969 -0.1000E-02  0.9208E-03 -0.8793E-03
58     1      0.0001      0.9562      0.1346 -0.1000E-02  0.9193E-03 -0.6910E-03
59     1      0.1015      0.7514      0.0007 -0.9597E-03  0.4929E-03 -0.1000E-02
60     1      0.1041      0.7975      0.0042 -0.9185E-03  0.5774E-03 -0.1000E-02
61     1      0.1067      0.8436      0.0076 -0.8732E-03  0.6842E-03 -0.1000E-02
62    11      0.1093      0.8896      0.0111 -0.8686E-03  0.7389E-03 -0.1000E-02
63    11      0.1119      0.9357      0.0146 -0.8684E-03  0.8063E-03 -0.1000E-02
64    11      0.1145      0.9819      0.0181 -0.8474E-03  0.1000E-02 -0.1000E-02
65    11      0.0565      0.4276      0.0139 -0.9263E-03 -0.1546E-03 -0.1000E-02
66     1      0.0590      0.4736      0.0173 -0.9521E-03 -0.6782E-04 -0.1000E-02
67     1      0.0616      0.5197      0.0208 -0.9398E-03  0.2470E-04 -0.1000E-02
68     1      0.0642      0.5658      0.0243 -0.9312E-03  0.1143E-03 -0.1000E-02
69     1      0.0668      0.6119      0.0278 -0.9271E-03  0.2086E-03 -0.1000E-02
70     1      0.0694      0.6580      0.0313 -0.9257E-03  0.3150E-03 -0.1000E-02
71     1      0.0720      0.7040      0.0347 -0.9155E-03  0.3943E-03 -0.1000E-02
72     1      0.0746      0.7501      0.0382 -0.9073E-03  0.4854E-03 -0.1000E-02
73     1      0.0772      0.7962      0.0417 -0.9022E-03  0.5719E-03 -0.9477E-03
74     1      0.0798      0.8422      0.0452 -0.9010E-03  0.6625E-03 -0.9394E-03
75     1      0.0823      0.8883      0.0487 -0.9139E-03  0.7506E-03 -0.9332E-03
76    11      0.0849      0.9344      0.0522 -0.9178E-03  0.8489E-03 -0.9332E-03
77    11      0.0875      0.9805      0.0557 -0.9038E-03  0.1000E-02 -0.9263E-03
78    11      0.0295      0.4263      0.0515 -0.1000E-02 -0.1178E-03 -0.9207E-03
79    11      0.0321      0.4723      0.0549 -0.1000E-02 -0.4407E-04 -0.9344E-03
80     1      0.0347      0.5184      0.0584 -0.1000E-02  0.4081E-04 -0.9324E-03
81     1      0.0372      0.5645      0.0619 -0.1000E-02  0.1309E-03 -0.9414E-03
82     1      0.0399      0.6106      0.0654 -0.9524E-03  0.2190E-03 -0.9432E-03
83     1      0.0425      0.6566      0.0688 -0.9525E-03  0.3086E-03 -0.9368E-03
84     1      0.0451      0.7027      0.0723 -0.9472E-03  0.3879E-03 -0.9198E-03
85     1      0.0476      0.7488      0.0758 -0.9446E-03  0.4784E-03 -0.8989E-03
86     1      0.0502      0.7948      0.0793 -0.9463E-03  0.5660E-03 -0.8884E-03
87     1      0.0528      0.8409      0.0828 -0.9506E-03  0.6622E-03 -0.8817E-03
88     1      0.0554      0.8870      0.0863 -0.9522E-03  0.7675E-03 -0.8811E-03
89     1      0.0580      0.9331      0.0897 -0.9475E-03  0.8763E-03 -0.8828E-03
90    11      0.0606      0.9792      0.0932 -0.9376E-03  0.1000E-02 -0.8768E-03
91    11      0.0026      0.4250      0.0891 -0.1000E-02 -0.8221E-04 -0.8095E-03
92     1      0.0052      0.4710      0.0926 -0.1000E-02 -0.1625E-04 -0.7910E-03
93     1      0.0078      0.5171      0.0960 -0.1000E-02  0.7450E-04 -0.8403E-03
94     1      0.0103      0.5632      0.0995 -0.1000E-02  0.1431E-03 -0.8769E-03
95     1      0.0129      0.6092      0.1029 -0.1000E-02  0.2114E-03 -0.8938E-03
96     1      0.0155      0.6553      0.1064 -0.1000E-02  0.2923E-03 -0.8885E-03
97     1      0.0181      0.7014      0.1099 -0.1000E-02  0.3838E-03 -0.8691E-03
98     1      0.0207      0.7474      0.1134 -0.1000E-02  0.4734E-03 -0.8570E-03
99     1      0.0233      0.7935      0.1169 -0.1000E-02  0.5629E-03 -0.8478E-03
100     1      0.0259      0.8396      0.1204 -0.1000E-02  0.6659E-03 -0.8398E-03
101     1      0.0284      0.8857      0.1238 -0.1000E-02  0.7761E-03 -0.8280E-03
102     1      0.0310      0.9318      0.1273 -0.1000E-02  0.8868E-03 -0.8182E-03
103     1      0.0336      0.9779      0.1308 -0.1000E-02  0.1000E-02 -0.8003E-03
104     1      0.0015      0.8844      0.1615 -0.1000E-02  0.7881E-03 -0.6402E-03
105     1      0.0041      0.9305      0.1650 -0.1000E-02  0.8875E-03 -0.6768E-03
106     1      0.0067      0.9766      0.1684 -0.1000E-02  0.1000E-02 -0.7019E-03
107     1      0.1376      0.8191      0.0005 -0.9040E-03  0.6208E-03 -0.1000E-02
108     1      0.1402      0.8652      0.0040 -0.8226E-03  0.7214E-03 -0.1000E-02
109    11      0.1428      0.9112      0.0075 -0.8290E-03  0.7470E-03 -0.1000E-02
110     1      0.0900      0.4493      0.0102 -0.8958E-03 -0.6281E-04 -0.1000E-02
111     1      0.0926      0.4953      0.0137 -0.8970E-03 -0.9242E-05 -0.1000E-02
112     1      0.0952      0.5414      0.0172 -0.8829E-03  0.6563E-04 -0.1000E-02
113     1      0.0978      0.5874      0.0206 -0.8702E-03  0.1504E-03 -0.1000E-02
114     1      0.1004      0.6335      0.0241 -0.8607E-03  0.2438E-03 -0.1000E-02
115     1      0.1029      0.6796      0.0276 -0.8576E-03  0.3348E-03 -0.1000E-02
116     1      0.1055      0.7257      0.0311 -0.8563E-03  0.4335E-03 -0.1000E-02
117     1      0.1081      0.7717      0.0345 -0.8566E-03  0.5198E-03 -0.1000E-02
118     1      0.1107      0.8178      0.0380 -0.8594E-03  0.6138E-03 -0.1000E-02
119     1      0.1133      0.8639      0.0416 -0.8514E-03  0.7058E-03 -0.9412E-03
120     1      0.1159      0.9099      0.0450 -0.8727E-03  0.7720E-03 -0.9290E-03
121    11      0.1184      0.9560      0.0485 -0.8942E-03  0.8680E-03 -0.9262E-03
122    11      0.0630      0.4479      0.0478 -0.9381E-03 -0.8074E-04 -0.9221E-03
123     1      0.0656      0.4940      0.0513 -0.9441E-03 -0.9012E-05 -0.9339E-03
124     1      0.0682      0.5400      0.0547 -0.9402E-03  0.7501E-04 -0.9355E-03
125     1      0.0708      0.5861      0.0582 -0.9251E-03  0.1578E-03 -0.9404E-03
126     1      0.0734      0.6322      0.0617 -0.9103E-03  0.2577E-03 -0.9430E-03
127     1      0.0760      0.6783      0.0652 -0.9048E-03  0.3460E-03 -0.9364E-03
128     1      0.0786      0.7243      0.0687 -0.9004E-03  0.4331E-03 -0.9289E-03
129     1      0.0812      0.7704      0.0721 -0.8993E-03  0.5142E-03 -0.9113E-03
130     1      0.0838      0.8165      0.0756 -0.9018E-03  0.6102E-03 -0.8907E-03
131     1      0.0863      0.8626      0.0791 -0.9058E-03  0.7047E-03 -0.8789E-03
132     1      0.0889      0.9086      0.0826 -0.9020E-03  0.8091E-03 -0.8756E-03
133     1      0.0915      0.9547      0.0861 -0.8933E-03  0.9205E-03 -0.8819E-03
134    11      0.0941      1.0008      0.0896 -0.9116E-03  0.1000E-02 -0.8766E-03
135    11      0.0335      0.4006      0.0819 -0.1000E-02 -0.1201E-03 -0.8663E-03
136     1      0.0361      0.4466      0.0854 -0.1000E-02 -0.6008E-04 -0.8519E-03
137     1      0.0386      0.4927      0.0889 -0.1000E-02  0.7771E-05 -0.8617E-03
138     1      0.0413      0.5387      0.0923 -0.9530E-03  0.9040E-04 -0.8731E-03
139     1      0.0439      0.5848      0.0958 -0.9485E-03  0.1699E-03 -0.8799E-03
140     1      0.0465      0.6309      0.0993 -0.9469E-03  0.2543E-03 -0.8769E-03
141     1      0.0490      0.6769      0.1028 -0.9470E-03  0.3391E-03 -0.8645E-03
142     1      0.0516      0.7230      0.1062 -0.9468E-03  0.4265E-03 -0.8511E-03
143     1      0.0542      0.7691      0.1097 -0.9474E-03  0.5173E-03 -0.8362E-03
144     1      0.0568      0.8152      0.1132 -0.9512E-03  0.6126E-03 -0.8270E-03
145     1      0.0594      0.8612      0.1167 -0.9535E-03  0.7170E-03 -0.8226E-03
146     1      0.0620      0.9073      0.1202 -0.9490E-03  0.8278E-03 -0.8226E-03
147     1      0.0646      0.9534      0.1237 -0.9435E-03  0.9346E-03 -0.8241E-03
148     1      0.0672      0.9995      0.1271 -0.9381E-03  0.1000E-02 -0.8218E-03
149    11      0.0066      0.3993      0.1196 -0.1000E-02 -0.7241E-04 -0.7364E-03
150     1      0.0091      0.4453      0.1230 -0.1000E-02 -0.6303E-04 -0.7706E-03
151     1      0.0117      0.4914      0.1265 -0.1000E-02  0.2257E-04 -0.7868E-03
152     1      0.0143      0.5374      0.1299 -0.1000E-02  0.9935E-04 -0.8112E-03
153     1      0.0169      0.5835      0.1334 -0.1000E-02  0.1728E-03 -0.8263E-03
154     1      0.0195      0.6295      0.1368 -0.1000E-02  0.2499E-03 -0.8268E-03
155     1      0.0221      0.6756      0.1403 -0.1000E-02  0.3307E-03 -0.8162E-03
156     1      0.0247      0.7217      0.1438 -0.1000E-02  0.4241E-03 -0.7987E-03
157     1      0.0273      0.7678      0.1473 -0.1000E-02  0.5180E-03 -0.7764E-03
158     1      0.0298      0.8138      0.1508 -0.1000E-02  0.6150E-03 -0.7700E-03
159     1      0.0324      0.8599      0.1543 -0.1000E-02  0.7353E-03 -0.7621E-03
160     1      0.0350      0.9060      0.1578 -0.1000E-02  0.8351E-03 -0.7564E-03
161     1      0.0376      0.9521      0.1612 -0.1000E-02  0.9360E-03 -0.7517E-03
162     1      0.0402      0.9982      0.1647 -0.9584E-03  0.1000E-02 -0.7539E-03
163     1      0.0003      0.7664      0.1850 -0.1000E-02  0.5298E-03 -0.5884E-03
164     1      0.0029      0.8125      0.1885 -0.1000E-02  0.6142E-03 -0.6002E-03
165     1      0.0055      0.8586      0.1919 -0.1000E-02  0.7336E-03 -0.6313E-03
166     1      0.0081      0.9047      0.1954 -0.1000E-02  0.8481E-03 -0.6533E-03
167     1      0.0107      0.9508      0.1988 -0.1000E-02  0.9387E-03 -0.6764E-03
168     1      0.0133      0.9968      0.2023 -0.1000E-02  0.1000E-02 -0.6908E-03
169    11      0.1738      0.8868      0.0003 -0.7294E-03  0.7531E-03 -0.1000E-02
170     1      0.1209      0.4249      0.0031 -0.8293E-03 -0.2387E-04 -0.1000E-02
171     1      0.1235      0.4709      0.0065 -0.8558E-03 -0.9532E-05 -0.1000E-02
172     1      0.1261      0.5169      0.0100 -0.8504E-03  0.3561E-04 -0.1000E-02
173     1      0.1287      0.5630      0.0135 -0.8351E-03  0.1047E-03 -0.1000E-02
174     1      0.1313      0.6090      0.0170 -0.8184E-03  0.1874E-03 -0.1000E-02
175     1      0.1339      0.6551      0.0205 -0.8017E-03  0.2796E-03 -0.1000E-02
176     1      0.1365      0.7012      0.0239 -0.7918E-03  0.3714E-03 -0.1000E-02
177     1      0.1391      0.7473      0.0274 -0.8013E-03  0.4591E-03 -0.1000E-02
178     1      0.1416      0.7934      0.0309 -0.8072E-03  0.5580E-03 -0.1000E-02
179     1      0.1442      0.8394      0.0344 -0.8101E-03  0.6472E-03 -0.1000E-02
180     1      0.1468      0.8855      0.0378 -0.7882E-03  0.7394E-03 -0.1000E-02
181    11      0.1494      0.9315      0.0414 -0.8375E-03  0.7628E-03 -0.9005E-03
182    11      0.0940      0.4235      0.0406 -0.8840E-03 -0.1135E-03 -0.9415E-03
183     1      0.0966      0.4695      0.0441 -0.8810E-03 -0.4171E-04 -0.9329E-03
184     1      0.0991      0.5156      0.0476 -0.8862E-03  0.2863E-04 -0.9339E-03
185     1      0.1017      0.5617      0.0511 -0.8789E-03  0.1073E-03 -0.9359E-03
186     1      0.1043      0.6077      0.0546 -0.8708E-03  0.1974E-03 -0.9379E-03
187     1      0.1069      0.6538      0.0580 -0.8598E-03  0.2914E-03 -0.9377E-03
188     1      0.1095      0.6999      0.0615 -0.8545E-03  0.3828E-03 -0.9370E-03
189     1      0.1121      0.7460      0.0650 -0.8533E-03  0.4709E-03 -0.9314E-03
190     1      0.1147      0.7920      0.0685 -0.8577E-03  0.5602E-03 -0.9249E-03
191     1      0.1173      0.8381      0.0720 -0.8594E-03  0.6432E-03 -0.9066E-03
192     1      0.1199      0.8842      0.0755 -0.8596E-03  0.7370E-03 -0.8806E-03
193     1      0.1225      0.9303      0.0790 -0.8425E-03  0.8447E-03 -0.8728E-03
194    11      0.1250      0.9764      0.0824 -0.8504E-03  0.1000E-02 -0.8738E-03
195    11      0.0670      0.4222      0.0783 -0.9059E-03 -0.7381E-04 -0.8067E-03
196     1      0.0696      0.4682      0.0817 -0.9269E-03 -0.3658E-04 -0.8612E-03
197     1      0.0722      0.5143      0.0852 -0.9227E-03  0.2966E-04 -0.8726E-03
198     1      0.0748      0.5603      0.0887 -0.9084E-03  0.1183E-03 -0.8772E-03
199     1      0.0774      0.6064      0.0921 -0.9026E-03  0.2062E-03 -0.8793E-03
200     1      0.0800      0.6525      0.0956 -0.9002E-03  0.2949E-03 -0.8741E-03
201     1      0.0826      0.6986      0.0991 -0.8990E-03  0.3828E-03 -0.8660E-03
202     1      0.0851      0.7446      0.1026 -0.8988E-03  0.4691E-03 -0.8535E-03
203     1      0.0877      0.7907      0.1061 -0.9017E-03  0.5594E-03 -0.8408E-03
204     1      0.0903      0.8368      0.1096 -0.9065E-03  0.6546E-03 -0.8272E-03
205     1      0.0929      0.8829      0.1130 -0.9063E-03  0.7575E-03 -0.8211E-03
206     1      0.0955      0.9290      0.1165 -0.8909E-03  0.8741E-03 -0.8244E-03
207    11      0.0981      0.9751      0.1200 -0.8861E-03  0.1000E-02 -0.8324E-03
208    11      0.0374      0.3748      0.1124 -0.1000E-02 -0.1413E-03 -0.7691E-03
209    11      0.0401      0.4209      0.1158 -0.9363E-03 -0.9354E-04 -0.7875E-03
210     1      0.0427      0.4669      0.1193 -0.9496E-03 -0.2708E-04 -0.7901E-03
211     1      0.0453      0.5130      0.1228 -0.9477E-03  0.4774E-04 -0.8035E-03
212     1      0.0478      0.5590      0.1262 -0.9452E-03  0.1276E-03 -0.8099E-03
213     1      0.0504      0.6051      0.1297 -0.9458E-03  0.2082E-03 -0.8124E-03
214     1      0.0530      0.6512      0.1332 -0.9465E-03  0.2912E-03 -0.8059E-03
215     1      0.0556      0.6972      0.1367 -0.9481E-03  0.3791E-03 -0.7946E-03
216     1      0.0582      0.7433      0.1402 -0.9484E-03  0.4704E-03 -0.7829E-03
217     1      0.0608      0.7894      0.1437 -0.9490E-03  0.5654E-03 -0.7728E-03
218     1      0.0634      0.8355      0.1471 -0.9525E-03  0.6682E-03 -0.7660E-03
219     1      0.0659      0.8816      0.1506 -0.9466E-03  0.7760E-03 -0.7652E-03
220     1      0.0685      0.9277      0.1541 -0.9365E-03  0.8847E-03 -0.7664E-03
221     1      0.0711      0.9738      0.1576 -0.9263E-03  0.1000E-02 -0.7736E-03
222    11      0.0105      0.3735      0.1499 -0.1000E-02 -0.1605E-03 -0.7285E-03
223     1      0.0131      0.4195      0.1534 -0.1000E-02 -0.8931E-04 -0.7063E-03
224     1      0.0157      0.4656      0.1569 -0.1000E-02 -0.2777E-04 -0.7357E-03
225     1      0.0183      0.5117      0.1603 -0.1000E-02  0.5190E-04 -0.7470E-03
226     1      0.0209      0.5577      0.1638 -0.1000E-02  0.1310E-03 -0.7552E-03
227     1      0.0235      0.6038      0.1673 -0.1000E-02  0.2092E-03 -0.7552E-03
228     1      0.0261      0.6498      0.1708 -0.1000E-02  0.2902E-03 -0.7388E-03
229     1      0.0286      0.6959      0.1743 -0.1000E-02  0.3754E-03 -0.7301E-03
230     1      0.0312      0.7420      0.1778 -0.1000E-02  0.4821E-03 -0.7145E-03
231     1      0.0338      0.7881      0.1812 -0.1000E-02  0.5732E-03 -0.7033E-03
232     1      0.0364      0.8342      0.1847 -0.1000E-02  0.6754E-03 -0.7023E-03
233     1      0.0390      0.8803      0.1882 -0.1000E-02  0.7855E-03 -0.6958E-03
234     1      0.0416      0.9263      0.1917 -0.9489E-03  0.8887E-03 -0.6983E-03
235     1      0.0442      0.9724      0.1951 -0.9488E-03  0.1000E-02 -0.7043E-03
236     1     -0.0009      0.6485      0.2085 -0.1000E-02  0.3004E-03 -0.5422E-03
237     1      0.0017      0.6946      0.2120 -0.1000E-02  0.3746E-03 -0.5531E-03
238     1      0.0043      0.7407      0.2154 -0.1000E-02  0.4804E-03 -0.5792E-03
239     1      0.0069      0.7868      0.2189 -0.1000E-02  0.5808E-03 -0.5929E-03
240     1      0.0095      0.8328      0.2223 -0.1000E-02  0.6801E-03 -0.6148E-03
241     1      0.0121      0.8789      0.2258 -0.1000E-02  0.7875E-03 -0.6282E-03
242     1      0.0147      0.9250      0.2293 -0.1000E-02  0.8921E-03 -0.6369E-03
243     1      0.0173      0.9711      0.2327 -0.1000E-02  0.1000E-02 -0.6491E-03
244     1      0.1544      0.4465     -0.0006 -0.8196E-03 -0.1817E-04 -0.1000E-02
245     1      0.1570      0.4925      0.0029 -0.8317E-03  0.1906E-04 -0.1000E-02
246     1      0.1596      0.5386      0.0064 -0.8139E-03  0.7977E-04 -0.1000E-02
247     1      0.1622      0.5846      0.0098 -0.7978E-03  0.1415E-03 -0.1000E-02
248     1      0.1648      0.6307      0.0133 -0.7764E-03  0.2259E-03 -0.1000E-02
249     1      0.1674      0.6768      0.0168 -0.7505E-03  0.3202E-03 -0.1000E-02
250     1      0.1700      0.7228      0.0203 -0.7355E-03  0.4142E-03 -0.1000E-02
251     1      0.1726      0.7689      0.0237 -0.7423E-03  0.4924E-03 -0.1000E-02
252     1      0.1752      0.8150      0.0272 -0.7595E-03  0.5788E-03 -0.1000E-02
253    11      0.1778      0.8610      0.0307 -0.7569E-03  0.6731E-03 -0.1000E-02
254    11      0.1804      0.9071      0.0342 -0.6897E-03  0.7743E-03 -0.1000E-02
255    11      0.1250      0.3991      0.0335 -0.7275E-03 -0.5813E-04 -0.1000E-02
256     1      0.1275      0.4451      0.0369 -0.8107E-03 -0.5382E-04 -0.1000E-02
257     1      0.1301      0.4912      0.0405 -0.8232E-03 -0.1700E-05 -0.9398E-03
258     1      0.1327      0.5372      0.0439 -0.8280E-03  0.6320E-04 -0.9380E-03
259     1      0.1353      0.5833      0.0474 -0.8266E-03  0.1442E-03 -0.9361E-03
260     1      0.1378      0.6294      0.0509 -0.8183E-03  0.2338E-03 -0.9366E-03
261     1      0.1404      0.6754      0.0544 -0.8084E-03  0.3282E-03 -0.9361E-03
262     1      0.1430      0.7215      0.0578 -0.8033E-03  0.4189E-03 -0.9342E-03
263     1      0.1456      0.7676      0.0613 -0.8087E-03  0.5066E-03 -0.9329E-03
264     1      0.1482      0.8137      0.0648 -0.8155E-03  0.5929E-03 -0.9272E-03
265     1      0.1508      0.8597      0.0683 -0.8161E-03  0.6807E-03 -0.9194E-03
266    11      0.1534      0.9058      0.0718 -0.8071E-03  0.7424E-03 -0.8865E-03
267    11      0.1560      0.9519      0.0753 -0.7528E-03  0.8596E-03 -0.8430E-03
268    11      0.0981      0.3978      0.0712 -0.7519E-03 -0.5147E-04 -0.8081E-03
269     1      0.1006      0.4438      0.0746 -0.8462E-03 -0.6928E-04 -0.8722E-03
270     1      0.1031      0.4898      0.0780 -0.8631E-03 -0.9950E-05 -0.8732E-03
271     1      0.1057      0.5359      0.0815 -0.8656E-03  0.6543E-04 -0.8752E-03
272     1      0.1083      0.5820      0.0850 -0.8597E-03  0.1520E-03 -0.8774E-03
273     1      0.1109      0.6280      0.0885 -0.8560E-03  0.2426E-03 -0.8770E-03
274     1      0.1135      0.6741      0.0919 -0.8525E-03  0.3338E-03 -0.8737E-03
275     1      0.1161      0.7202      0.0954 -0.8507E-03  0.4227E-03 -0.8680E-03
276     1      0.1187      0.7663      0.0989 -0.8524E-03  0.5116E-03 -0.8600E-03
277     1      0.1212      0.8123      0.1024 -0.8570E-03  0.5980E-03 -0.8471E-03
278     1      0.1238      0.8584      0.1059 -0.8632E-03  0.6857E-03 -0.8326E-03
279     1      0.1264      0.9045      0.1094 -0.8600E-03  0.7877E-03 -0.8226E-03
280    11      0.1290      0.9506      0.1128 -0.8285E-03  0.9226E-03 -0.8319E-03
281     1      0.1316      0.9967      0.1163 -0.8358E-03  0.1000E-02 -0.8314E-03
282    11      0.0710      0.3964      0.1087 -0.8911E-03 -0.1530E-03 -0.7704E-03
283     1      0.0736      0.4425      0.1122 -0.8909E-03 -0.5858E-04 -0.7772E-03
284     1      0.0762      0.4885      0.1156 -0.8998E-03 -0.3306E-06 -0.8023E-03
285     1      0.0788      0.5346      0.1191 -0.8986E-03  0.7621E-04 -0.8109E-03
286     1      0.0814      0.5807      0.1226 -0.8974E-03  0.1607E-03 -0.8132E-03
287     1      0.0840      0.6267      0.1261 -0.8973E-03  0.2463E-03 -0.8117E-03
288     1      0.0865      0.6728      0.1295 -0.8976E-03  0.3343E-03 -0.8051E-03
289     1      0.0891      0.7189      0.1330 -0.8978E-03  0.4227E-03 -0.7958E-03
290     1      0.0917      0.7649      0.1365 -0.8975E-03  0.5138E-03 -0.7856E-03
291     1      0.0943      0.8110      0.1400 -0.8995E-03  0.6084E-03 -0.7752E-03
292     1      0.0969      0.8571      0.1435 -0.8995E-03  0.7074E-03 -0.7682E-03
293     1      0.0995      0.9032      0.1469 -0.8909E-03  0.8166E-03 -0.7687E-03
294     1      0.1021      0.9493      0.1504 -0.8724E-03  0.9338E-03 -0.7777E-03
295     1      0.1047      0.9954      0.1539 -0.8722E-03  0.1000E-02 -0.7871E-03
296    11      0.0415      0.3491      0.1427 -0.9109E-03 -0.1468E-03 -0.8158E-03
297     1      0.0441      0.3951      0.1463 -0.9383E-03 -0.1234E-03 -0.7139E-03
298     1      0.0467      0.4412      0.1498 -0.9385E-03 -0.6657E-04 -0.7210E-03
299     1      0.0492      0.4872      0.1532 -0.9439E-03  0.7302E-05 -0.7312E-03
300     1      0.0518      0.5333      0.1567 -0.9447E-03  0.8473E-04 -0.7408E-03
301     1      0.0544      0.5793      0.1602 -0.9457E-03  0.1659E-03 -0.7438E-03
302     1      0.0570      0.6254      0.1636 -0.9468E-03  0.2484E-03 -0.7427E-03
303     1      0.0596      0.6715      0.1671 -0.9471E-03  0.3337E-03 -0.7362E-03
304     1      0.0622      0.7176      0.1706 -0.9495E-03  0.4256E-03 -0.7265E-03
305     1      0.0648      0.7636      0.1741 -0.9455E-03  0.5202E-03 -0.7187E-03
306     1      0.0673      0.8097      0.1776 -0.9428E-03  0.6188E-03 -0.7125E-03
307     1      0.0699      0.8558      0.1810 -0.9393E-03  0.7253E-03 -0.7099E-03
308     1      0.0725      0.9019      0.1845 -0.9201E-03  0.8258E-03 -0.7116E-03
309     1      0.0751      0.9480      0.1880 -0.9010E-03  0.9385E-03 -0.7176E-03
310     1      0.0777      0.9940      0.1915 -0.9026E-03  0.1000E-02 -0.7261E-03
311    11      0.0145      0.3478      0.1804 -0.1000E-02 -0.1467E-03 -0.6250E-03
312    11      0.0171      0.3938      0.1839 -0.1000E-02 -0.1490E-03 -0.6650E-03
313     1      0.0197      0.4398      0.1873 -0.1000E-02 -0.6627E-04 -0.6635E-03
314     1      0.0223      0.4859      0.1908 -0.1000E-02  0.4166E-05 -0.6783E-03
315     1      0.0249      0.5320      0.1943 -0.1000E-02  0.8551E-04 -0.6830E-03
316     1      0.0274      0.5780      0.1977 -0.1000E-02  0.1677E-03 -0.6744E-03
317     1      0.0300      0.6241      0.2012 -0.1000E-02  0.2600E-03 -0.6685E-03
318     1      0.0326      0.6702      0.2047 -0.1000E-02  0.3390E-03 -0.6597E-03
319     1      0.0352      0.7162      0.2082 -0.1000E-02  0.4279E-03 -0.6555E-03
320     1      0.0378      0.7623      0.2117 -0.1000E-02  0.5264E-03 -0.6450E-03
321     1      0.0404      0.8084      0.2152 -0.9548E-03  0.6269E-03 -0.6445E-03
322     1      0.0430      0.8545      0.2186 -0.9508E-03  0.7303E-03 -0.6458E-03
323     1      0.0456      0.9006      0.2221 -0.9442E-03  0.8369E-03 -0.6435E-03
324     1      0.0482      0.9467      0.2256 -0.9409E-03  0.9395E-03 -0.6463E-03
325     1      0.0508      0.9927      0.2290 -0.9466E-03  0.1000E-02 -0.6575E-03
326     1      0.0005      0.5767      0.2355 -0.1000E-02  0.1725E-03 -0.4851E-03
327     1      0.0031      0.6228      0.2389 -0.1000E-02  0.2609E-03 -0.5258E-03
328     1      0.0057      0.6688      0.2423 -0.1000E-02  0.3472E-03 -0.5425E-03
329     1      0.0083      0.7149      0.2458 -0.1000E-02  0.4333E-03 -0.5613E-03
330     1      0.0109      0.7610      0.2493 -0.1000E-02  0.5277E-03 -0.5717E-03
331     1      0.0135      0.8071      0.2527 -0.1000E-02  0.6296E-03 -0.5828E-03
332     1      0.0161      0.8532      0.2562 -0.1000E-02  0.7305E-03 -0.5939E-03
333     1      0.0186      0.8993      0.2597 -0.1000E-02  0.8356E-03 -0.5953E-03
334     1      0.0212      0.9453      0.2632 -0.1000E-02  0.9405E-03 -0.5935E-03
335     1      0.0238      0.9914      0.2666 -0.1000E-02  0.1000E-02 -0.6005E-03
336     1      0.1905      0.5141     -0.0008 -0.8119E-03  0.4303E-04 -0.1000E-02
337     1      0.1931      0.5602      0.0027 -0.7908E-03  0.1070E-03 -0.1000E-02
338     1      0.1957      0.6062      0.0062 -0.7735E-03  0.1816E-03 -0.1000E-02
339     1      0.1983      0.6523      0.0096 -0.7443E-03  0.2652E-03 -0.1000E-02
340     1      0.2009      0.6984      0.0131 -0.7076E-03  0.3692E-03 -0.1000E-02
341     1      0.2035      0.7445      0.0166 -0.6790E-03  0.4599E-03 -0.1000E-02
342     1      0.2061      0.7905      0.0201 -0.7028E-03  0.5383E-03 -0.1000E-02
343    11      0.2087      0.8366      0.0236 -0.7170E-03  0.6083E-03 -0.1000E-02
344    11      0.2113      0.8826      0.0270 -0.6968E-03  0.6572E-03 -0.1000E-02
345    11      0.1559      0.3747      0.0263 -0.6973E-03 -0.1181E-03 -0.1000E-02
346    11      0.1585      0.4207      0.0298 -0.7032E-03 -0.6536E-04 -0.1000E-02
347     1      0.1610      0.4668      0.0333 -0.7489E-03 -0.2705E-04 -0.1000E-02
348     1      0.1636      0.5128      0.0367 -0.7692E-03  0.3073E-04 -0.1000E-02
349     1      0.1662      0.5588      0.0403 -0.7764E-03  0.9867E-04 -0.9434E-03
350     1      0.1688      0.6049      0.0438 -0.7766E-03  0.1783E-03 -0.9401E-03
351     1      0.1714      0.6510      0.0472 -0.7689E-03  0.2709E-03 -0.9374E-03
352     1      0.1740      0.6971      0.0507 -0.7557E-03  0.3669E-03 -0.9356E-03
353     1      0.1766      0.7431      0.0542 -0.7520E-03  0.4570E-03 -0.9316E-03
354     1      0.1791      0.7892      0.0577 -0.7649E-03  0.5348E-03 -0.9279E-03
355     1      0.1817      0.8353      0.0611 -0.7773E-03  0.6145E-03 -0.9244E-03
356    11      0.1843      0.8813      0.0646 -0.7629E-03  0.6923E-03 -0.9241E-03
357    11      0.1869      0.9273      0.0681 -0.7156E-03  0.6979E-03 -0.9087E-03
358    11      0.1290      0.3733      0.0639 -0.7480E-03 -0.1740E-03 -0.9083E-03
359     1      0.1316      0.4194      0.0674 -0.7497E-03 -0.7712E-04 -0.9043E-03
360     1      0.1341      0.4654      0.0709 -0.7957E-03 -0.4594E-04 -0.8990E-03
361     1      0.1367      0.5115      0.0744 -0.8081E-03  0.2398E-04 -0.8840E-03
362     1      0.1392      0.5575      0.0779 -0.8120E-03  0.9928E-04 -0.8801E-03
363     1      0.1418      0.6036      0.0813 -0.8116E-03  0.1870E-03 -0.8784E-03
364     1      0.1444      0.6497      0.0848 -0.8077E-03  0.2784E-03 -0.8768E-03
365     1      0.1470      0.6958      0.0883 -0.8031E-03  0.3711E-03 -0.8731E-03