ITEM: TIMESTEP
0
ITEM: NUMBER OF ATOMS
20021
ITEM: BOX BOUNDS pp pp pp
 0.0 1.0
 0.0 1.0
 0.0 1.0
ITEM: ATOMS id type x y z 
1    11  0.0135  0.9878  0.0032
2     1  0.0020  0.6862  0.0127
3     1  0.0046  0.7322  0.0162
4     1  0.0072  0.7781  0.0196
5     1  0.0098  0.8241  0.0231
6     1  0.0123  0.8701  0.0266
7     1  0.0149  0.9161  0.0301
8     1  0.0175  0.9621  0.0335
9     1  0.0303  0.6158  0.0021
10     1  0.0329  0.6618  0.0055
11     1  0.0355  0.7078  0.0090
12     1  0.0381  0.7537  0.0125
13     1  0.0406  0.7997  0.0160
14     1  0.0432  0.8457  0.0194
15     1  0.0458  0.8917  0.0229
16     1  0.0484  0.9377  0.0264
17    11  0.0510  0.9837  0.0299
18     1  0.0008  0.5685  0.0361
19     1  0.0034  0.6145  0.0396
20     1  0.0060  0.6605  0.0431
21     1  0.0086  0.7064  0.0465
22     1  0.0111  0.7524  0.0500
23     1  0.0137  0.7984  0.0535
24     1  0.0163  0.8444  0.0570
25     1  0.0189  0.8904  0.0604
26     1  0.0215  0.9364  0.0639
27     1  0.0241  0.9823  0.0674
28     1  0.0664  0.6834  0.0019
29     1  0.0689  0.7293  0.0054
30     1  0.0715  0.7753  0.0088
31     1  0.0741  0.8213  0.0123
32     1  0.0767  0.8673  0.0158
33     1  0.0793  0.9133  0.0193
34    11  0.0819  0.9593  0.0227
35    11  0.0265  0.4521  0.0220
36    11  0.0291  0.4981  0.0255
37     1  0.0317  0.5441  0.0290
38     1  0.0343  0.5901  0.0324
39     1  0.0369  0.6361  0.0359
40     1  0.0394  0.6820  0.0394
41     1  0.0420  0.7280  0.0429
42     1  0.0446  0.7740  0.0463
43     1  0.0472  0.8200  0.0498
44     1  0.0498  0.8660  0.0533
45     1  0.0524  0.9120  0.0568
46     1  0.0550  0.9579  0.0602
47     1  0.0022  0.4968  0.0630
48     1  0.0048  0.5428  0.0665
49     1  0.0074  0.5887  0.0700
50     1  0.0099  0.6347  0.0734
51     1  0.0125  0.6807  0.0769
52     1  0.0151  0.7267  0.0804
53     1  0.0177  0.7727  0.0839
54     1  0.0203  0.8187  0.0873
55     1  0.0229  0.8647  0.0908
56     1  0.0255  0.9106  0.0943
57     1  0.0281  0.9566  0.0978
58     1  0.0011  0.9553  0.1353
59     1  0.1024  0.7509  0.0017
60     1  0.1050  0.7969  0.0052
61     1  0.1076  0.8429  0.0086
62    11  0.1102  0.8889  0.0121
63    11  0.1128  0.9349  0.0156
64    11  0.1153  0.9809  0.0191
65    11  0.0574  0.4277  0.0149
66     1  0.0600  0.4737  0.0183
67     1  0.0626  0.5197  0.0218
68     1  0.0652  0.5657  0.0253
69     1  0.0677  0.6117  0.0288
70     1  0.0703  0.6576  0.0323
71     1  0.0729  0.7036  0.0357
72     1  0.0755  0.7496  0.0392
73     1  0.0781  0.7956  0.0427
74     1  0.0807  0.8416  0.0462
75     1  0.0833  0.8876  0.0496
76    11  0.0858  0.9336  0.0531
77    11  0.0884  0.9795  0.0566
78    11  0.0305  0.4264  0.0524
79    11  0.0331  0.4724  0.0559
80     1  0.0357  0.5184  0.0593
81     1  0.0382  0.5644  0.0628
82     1  0.0408  0.6103  0.0663
83     1  0.0434  0.6563  0.0698
84     1  0.0460  0.7023  0.0732
85     1  0.0486  0.7483  0.0767
86     1  0.0512  0.7943  0.0802
87     1  0.0538  0.8403  0.0837
88     1  0.0564  0.8862  0.0871
89     1  0.0589  0.9322  0.0906
90    11  0.0615  0.9782  0.0941
91    11  0.0036  0.4251  0.0899
92     1  0.0062  0.4711  0.0934
93     1  0.0088  0.5170  0.0969
94     1  0.0113  0.5630  0.1003
95     1  0.0139  0.6090  0.1038
96     1  0.0165  0.6550  0.1073
97     1  0.0191  0.7010  0.1108
98     1  0.0217  0.7470  0.1142
99     1  0.0243  0.7930  0.1177
100     1  0.0269  0.8389  0.1212
101     1  0.0294  0.8849  0.1247
102     1  0.0320  0.9309  0.1281
103     1  0.0346  0.9769  0.1316
104     1  0.0025  0.8836  0.1622
105     1  0.0051  0.9296  0.1657
106     1  0.0077  0.9756  0.1691
107     1  0.1385  0.8185  0.0015
108     1  0.1411  0.8645  0.0050
109    11  0.1436  0.9105  0.0085
110     1  0.0909  0.4493  0.0112
111     1  0.0935  0.4953  0.0147
112     1  0.0960  0.5413  0.0182
113     1  0.0986  0.5873  0.0216
114     1  0.1012  0.6333  0.0251
115     1  0.1038  0.6792  0.0286
116     1  0.1064  0.7252  0.0321
117     1  0.1090  0.7712  0.0355
118     1  0.1116  0.8172  0.0390
119     1  0.1141  0.8632  0.0425
120     1  0.1167  0.9092  0.0460
121    11  0.1193  0.9551  0.0494
122    11  0.0640  0.4480  0.0487
123     1  0.0666  0.4940  0.0522
124     1  0.0691  0.5400  0.0557
125     1  0.0717  0.5859  0.0592
126     1  0.0743  0.6319  0.0626
127     1  0.0769  0.6779  0.0661
128     1  0.0795  0.7239  0.0696
129     1  0.0821  0.7699  0.0731
130     1  0.0847  0.8159  0.0765
131     1  0.0872  0.8619  0.0800
132     1  0.0898  0.9078  0.0835
133     1  0.0924  0.9538  0.0870
134    11  0.0950  0.9998  0.0904
135    11  0.0345  0.4007  0.0828
136     1  0.0371  0.4467  0.0862
137     1  0.0396  0.4927  0.0897
138     1  0.0422  0.5386  0.0932
139     1  0.0448  0.5846  0.0967
140     1  0.0474  0.6306  0.1001
141     1  0.0500  0.6766  0.1036
142     1  0.0526  0.7226  0.1071
143     1  0.0552  0.7686  0.1106
144     1  0.0577  0.8145  0.1141
145     1  0.0603  0.8605  0.1175
146     1  0.0629  0.9065  0.1210
147     1  0.0655  0.9525  0.1245
148     1  0.0681  0.9985  0.1280
149    11  0.0076  0.3994  0.1203
150     1  0.0101  0.4453  0.1238
151     1  0.0127  0.4913  0.1272
152     1  0.0153  0.5373  0.1307
153     1  0.0179  0.5833  0.1342
154     1  0.0205  0.6293  0.1377
155     1  0.0231  0.6753  0.1411
156     1  0.0257  0.7213  0.1446
157     1  0.0283  0.7672  0.1481
158     1  0.0308  0.8132  0.1516
159     1  0.0334  0.8592  0.1550
160     1  0.0360  0.9052  0.1585
161     1  0.0386  0.9512  0.1620
162     1  0.0412  0.9972  0.1655
163     1  0.0013  0.7659  0.1856
164     1  0.0039  0.8119  0.1891
165     1  0.0065  0.8579  0.1926
166     1  0.0091  0.9039  0.1960
167     1  0.0117  0.9499  0.1995
168     1  0.0143  0.9958  0.2030
169    11  0.1745  0.8861  0.0013
170     1  0.1218  0.4249  0.0041
171     1  0.1243  0.4709  0.0075
172     1  0.1269  0.5169  0.0110
173     1  0.1295  0.5629  0.0145
174     1  0.1321  0.6089  0.0180
175     1  0.1347  0.6548  0.0215
176     1  0.1373  0.7008  0.0249
177     1  0.1399  0.7468  0.0284
178     1  0.1424  0.7928  0.0319
179     1  0.1450  0.8388  0.0354
180     1  0.1476  0.8848  0.0388
181    11  0.1502  0.9308  0.0423
182    11  0.0949  0.4236  0.0416
183     1  0.0974  0.4696  0.0451
184     1  0.1000  0.5156  0.0485
185     1  0.1026  0.5616  0.0520
186     1  0.1052  0.6075  0.0555
187     1  0.1078  0.6535  0.0590
188     1  0.1104  0.6995  0.0624
189     1  0.1130  0.7455  0.0659
190     1  0.1155  0.7915  0.0694
191     1  0.1181  0.8375  0.0729
192     1  0.1207  0.8834  0.0763
193     1  0.1233  0.9294  0.0798
194    11  0.1259  0.9754  0.0833
195    11  0.0679  0.4223  0.0791
196     1  0.0705  0.4683  0.0826
197     1  0.0731  0.5142  0.0861
198     1  0.0757  0.5602  0.0895
199     1  0.0783  0.6062  0.0930
200     1  0.0809  0.6522  0.0965
201     1  0.0835  0.6982  0.1000
202     1  0.0860  0.7442  0.1034
203     1  0.0886  0.7902  0.1069
204     1  0.0912  0.8361  0.1104
205     1  0.0938  0.8821  0.1139
206     1  0.0964  0.9281  0.1173
207    11  0.0990  0.9741  0.1208
208    11  0.0384  0.3750  0.1131
209    11  0.0410  0.4210  0.1166
210     1  0.0436  0.4669  0.1201
211     1  0.0462  0.5129  0.1236
212     1  0.0488  0.5589  0.1271
213     1  0.0514  0.6049  0.1305
214     1  0.0540  0.6509  0.1340
215     1  0.0566  0.6969  0.1375
216     1  0.0591  0.7428  0.1410
217     1  0.0617  0.7888  0.1444
218     1  0.0643  0.8348  0.1479
219     1  0.0669  0.8808  0.1514
220     1  0.0695  0.9268  0.1549
221     1  0.0721  0.9728  0.1583
222    11  0.0115  0.3736  0.1507
223     1  0.0141  0.4196  0.1541
224     1  0.0167  0.4656  0.1576
225     1  0.0193  0.5116  0.1611
226     1  0.0219  0.5576  0.1646
227     1  0.0245  0.6036  0.1680
228     1  0.0271  0.6496  0.1715
229     1  0.0296  0.6955  0.1750
230     1  0.0322  0.7415  0.1785
231     1  0.0348  0.7875  0.1819
232     1  0.0374  0.8335  0.1854
233     1  0.0400  0.8795  0.1889
234     1  0.0426  0.9255  0.1924
235     1  0.0452  0.9714  0.1959
236     1  0.0001  0.6482  0.2090
237     1  0.0027  0.6942  0.2125
238     1  0.0053  0.7402  0.2160
239     1  0.0079  0.7862  0.2195
240     1  0.0105  0.8322  0.2229
241     1  0.0131  0.8782  0.2264
242     1  0.0157  0.9241  0.2299
243     1  0.0183  0.9701  0.2334
244     1  0.1552  0.4465  0.0004
245     1  0.1578  0.4925  0.0039
246     1  0.1604  0.5385  0.0074
247     1  0.1630  0.5845  0.0108
248     1  0.1656  0.6305  0.0143
249     1  0.1682  0.6764  0.0178
250     1  0.1707  0.7224  0.0213
251     1  0.1733  0.7684  0.0247
252     1  0.1759  0.8144  0.0282
253    11  0.1785  0.8604  0.0317
254    11  0.1811  0.9064  0.0352
255    11  0.1257  0.3992  0.0345
256     1  0.1283  0.4452  0.0379
257     1  0.1309  0.4912  0.0414
258     1  0.1335  0.5372  0.0449
259     1  0.1361  0.5831  0.0484
260     1  0.1387  0.6291  0.0518
261     1  0.1413  0.6751  0.0553
262     1  0.1438  0.7211  0.0588
263     1  0.1464  0.7671  0.0623
264     1  0.1490  0.8131  0.0657
265     1  0.1516  0.8590  0.0692
266    11  0.1542  0.9050  0.0727
267    11  0.1568  0.9510  0.0762
268    11  0.0988  0.3979  0.0720
269     1  0.1014  0.4439  0.0754
270     1  0.1040  0.4899  0.0789
271     1  0.1066  0.5358  0.0824
272     1  0.1092  0.5818  0.0859
273     1  0.1118  0.6278  0.0893
274     1  0.1143  0.6738  0.0928
275     1  0.1169  0.7198  0.0963
276     1  0.1195  0.7658  0.0998
277     1  0.1221  0.8117  0.1032
278     1  0.1247  0.8577  0.1067
279     1  0.1273  0.9037  0.1102
280    11  0.1299  0.9497  0.1137
281     1  0.1324  0.9957  0.1172
282    11  0.0719  0.3966  0.1095
283     1  0.0745  0.4425  0.1130
284     1  0.0771  0.4885  0.1164
285     1  0.0797  0.5345  0.1199
286     1  0.0823  0.5805  0.1234
287     1  0.0849  0.6265  0.1269
288     1  0.0874  0.6725  0.1303
289     1  0.0900  0.7185  0.1338
290     1  0.0926  0.7644  0.1373
291     1  0.0952  0.8104  0.1408
292     1  0.0978  0.8564  0.1442
293     1  0.1004  0.9024  0.1477
294     1  0.1030  0.9484  0.1512
295     1  0.1055  0.9944  0.1547
296    11  0.0424  0.3493  0.1435
297     1  0.0450  0.3952  0.1470
298     1  0.0476  0.4412  0.1505
299     1  0.0502  0.4872  0.1540
300     1  0.0528  0.5332  0.1574
301     1  0.0554  0.5792  0.1609
302     1  0.0579  0.6252  0.1644
303     1  0.0605  0.6711  0.1679
304     1  0.0631  0.7171  0.1713
305     1  0.0657  0.7631  0.1748
306     1  0.0683  0.8091  0.1783
307     1  0.0709  0.8551  0.1818
308     1  0.0735  0.9011  0.1852
309     1  0.0760  0.9471  0.1887
310     1  0.0786  0.9930  0.1922
311    11  0.0155  0.3479  0.1810
312    11  0.0181  0.3939  0.1845
313     1  0.0207  0.4399  0.1880
314     1  0.0233  0.4859  0.1915
315     1  0.0259  0.5319  0.1949
316     1  0.0284  0.5779  0.1984
317     1  0.0310  0.6238  0.2019
318     1  0.0336  0.6698  0.2054
319     1  0.0362  0.7158  0.2088
320     1  0.0388  0.7618  0.2123
321     1  0.0414  0.8078  0.2158
322     1  0.0440  0.8538  0.2193
323     1  0.0466  0.8997  0.2228
324     1  0.0491  0.9457  0.2262
325     1  0.0517  0.9917  0.2297
326     1  0.0015  0.5765  0.2359
327     1  0.0041  0.6225  0.2394
328     1  0.0067  0.6685  0.2429
329     1  0.0093  0.7145  0.2464
330     1  0.0119  0.7605  0.2498
331     1  0.0145  0.8065  0.2533
332     1  0.0171  0.8524  0.2568
333     1  0.0196  0.8984  0.2603
334     1  0.0222  0.9444  0.2637
335     1  0.0248  0.9904  0.2672
336     1  0.1913  0.5141  0.0002
337     1  0.1939  0.5601  0.0037
338     1  0.1965  0.6061  0.0072
339     1  0.1990  0.6520  0.0106
340     1  0.2016  0.6980  0.0141
341     1  0.2042  0.7440  0.0176
342     1  0.2068  0.7900  0.0211
343    11  0.2094  0.8360  0.0246
344    11  0.2120  0.8820  0.0280
345    11  0.1566  0.3748  0.0273
346    11  0.1592  0.4208  0.0308
347     1  0.1618  0.4668  0.0343
348     1  0.1644  0.5128  0.0377
349     1  0.1670  0.5587  0.0412
350     1  0.1696  0.6047  0.0447
351     1  0.1721  0.6507  0.0482
352     1  0.1747  0.6967  0.0516
353     1  0.1773  0.7427  0.0551
354     1  0.1799  0.7887  0.0586
355     1  0.1825  0.8347  0.0621
356    11  0.1851  0.8806  0.0655
357    11  0.1877  0.9266  0.0690
358    11  0.1297  0.3735  0.0648
359     1  0.1323  0.4195  0.0683
360     1  0.1349  0.4655  0.0718
361     1  0.1375  0.5114  0.0753
362     1  0.1401  0.5574  0.0787
363     1  0.1426  0.6034  0.0822
364     1  0.1452  0.6494  0.0857
365     1  0.1478  0.6954  0.0892
366     1  0.1504  0.7414  0.0926
367     1  0.1530  0.7873  0.0961
368     1  0.1556  0.8333  0.0996
369     1  0.1582  0.8793  0.1031
370    11  0.1607  0.9253  0.1065
371    11  0.1633  0.9713  0.1100
372    11  0.1028  0.3722  0.1023
373     1  0.1054  0.4182  0.1058
374     1  0.1080  0.4641  0.1093
375     1  0.1106  0.5101  0.1128
376     1  0.1132  0.5561  0.1162
377     1  0.1157  0.6021  0.1197
378     1  0.1183  0.6481  0.1232
379     1  0.1209  0.6941  0.1267
380     1  0.1235  0.7400  0.1302
381     1  0.1261  0.7860  0.1336
382     1  0.1287  0.8320  0.1371
383     1  0.1313  0.8780  0.1406
384     1  0.1338  0.9240  0.1441
385    11  0.1364  0.9700  0.1475
386    11  0.0759  0.3708  0.1399
387     1  0.0785  0.4168  0.1433
388     1  0.0811  0.4628  0.1468
389     1  0.0837  0.5088  0.1503
390     1  0.0862  0.5548  0.1538
391     1  0.0888  0.6008  0.1572
392     1  0.0914  0.6468  0.1607
393     1  0.0940  0.6927  0.1642
394     1  0.0966  0.7387  0.1677
395     1  0.0992  0.7847  0.1711
396     1  0.1018  0.8307  0.1746
397     1  0.1043  0.8767  0.1781
398     1  0.1069  0.9227  0.1816
399     1  0.1095  0.9686  0.1850
400    11  0.0490  0.3695  0.1774
401     1  0.0516  0.4155  0.1809
402     1  0.0542  0.4615  0.1843
403     1  0.0567  0.5075  0.1878
404     1  0.0593  0.5535  0.1913
405     1  0.0619  0.5994  0.1948
406     1  0.0645  0.6454  0.1982
407     1  0.0671  0.6914  0.2017
408     1  0.0697  0.7374  0.2052
409     1  0.0723  0.7834  0.2087
410     1  0.0749  0.8294  0.2121
411     1  0.0774  0.8754  0.2156
412     1  0.0800  0.9213  0.2191
413     1  0.0826  0.9673  0.2226
414    11  0.0195  0.3222  0.2114
415     1  0.0221  0.3682  0.2149
416     1  0.0247  0.4142  0.2184
417     1  0.0273  0.4602  0.2218
418     1  0.0298  0.5062  0.2253
419     1  0.0324  0.5521  0.2288
420     1  0.0350  0.5981  0.2323
421     1  0.0376  0.6441  0.2358
422     1  0.0402  0.6901  0.2392
423     1  0.0428  0.7361  0.2427
424     1  0.0454  0.7821  0.2462
425     1  0.0479  0.8280  0.2497
426     1  0.0505  0.8740  0.2531
427     1  0.0531  0.9200  0.2566
428     1  0.0557  0.9660  0.2601
429     1  0.0003  0.4588  0.2594
430     1  0.0029  0.5048  0.2628
431     1  0.0055  0.5508  0.2663
432     1  0.0081  0.5968  0.2698
433     1  0.0107  0.6428  0.2733
434     1  0.0133  0.6888  0.2767
435     1  0.0159  0.7348  0.2802
436     1  0.0185  0.7807  0.2837
437     1  0.0210  0.8267  0.2872
438     1  0.0236  0.8727  0.2906
439     1  0.0262  0.9187  0.2941
440     1  0.0288  0.9647  0.2976
441    11  0.0019  0.9634  0.3351
442     1  0.2273  0.5817  0.0000
443     1  0.2299  0.6276  0.0035
444     1  0.2325  0.6736  0.0070
445     1  0.2351  0.7196  0.0105
446     1  0.2377  0.7656  0.0139
447    11  0.2403  0.8116  0.0174
448    11  0.2429  0.8576  0.0209
449    11  0.1901  0.3964  0.0236
450     1  0.1927  0.4424  0.0271
451     1  0.1953  0.4884  0.0306
452     1  0.1979  0.5344  0.0341
453     1  0.2004  0.5803  0.0376
454     1  0.2030  0.6263  0.0410
455     1  0.2056  0.6723  0.0445
456     1  0.2082  0.7183  0.0480
457     1  0.2108  0.7643  0.0515
458     1  0.2134  0.8103  0.0549
459    11  0.2160  0.8562  0.0584
460    11  0.2185  0.9022  0.0619
461    11  0.1606  0.3491  0.0577
462     1  0.1632  0.3951  0.0612
463     1  0.1658  0.4411  0.0646
464     1  0.1684  0.4870  0.0681
465     1  0.1709  0.5330  0.0716
466     1  0.1735  0.5790  0.0751
467     1  0.1761  0.6250  0.0785
468     1  0.1787  0.6710  0.0820
469     1  0.1813  0.7170  0.0855
470     1  0.1839  0.7630  0.0890
471     1  0.1865  0.8089  0.0924
472     1  0.1891  0.8549  0.0959
473    11  0.1916  0.9009  0.0994
474    11  0.1942  0.9469  0.1029
475    11  0.1337  0.3478  0.0952
476     1  0.1363  0.3938  0.0987
477     1  0.1389  0.4397  0.1022
478     1  0.1415  0.4857  0.1056
479     1  0.1440  0.5317  0.1091
480     1  0.1466  0.5777  0.1126
481     1  0.1492  0.6237  0.1161
482     1  0.1518  0.6697  0.1195
483     1  0.1544  0.7156  0.1230
484     1  0.1570  0.7616  0.1265
485     1  0.1596  0.8076  0.1300
486     1  0.1621  0.8536  0.1334
487     1  0.1647  0.8996  0.1369
488    11  0.1673  0.9456  0.1404
489     1  0.1699  0.9916  0.1439
490    11  0.1068  0.3465  0.1327
491     1  0.1094  0.3924  0.1362
492     1  0.1120  0.4384  0.1397
493     1  0.1145  0.4844  0.1432
494     1  0.1171  0.5304  0.1466
495     1  0.1197  0.5764  0.1501
496     1  0.1223  0.6224  0.1536
497     1  0.1249  0.6683  0.1571
498     1  0.1275  0.7143  0.1605
499     1  0.1301  0.7603  0.1640
500     1  0.1326  0.8063  0.1675
501     1  0.1352  0.8523  0.1710
502     1  0.1378  0.8983  0.1744
503     1  0.1404  0.9442  0.1779
504    11  0.1430  0.9902  0.1814
505    11  0.0799  0.3451  0.1702
506     1  0.0825  0.3911  0.1737
507     1  0.0851  0.4371  0.1772
508     1  0.0876  0.4831  0.1807
509     1  0.0902  0.5291  0.1841
510     1  0.0928  0.5751  0.1876
511     1  0.0954  0.6210  0.1911
512     1  0.0980  0.6670  0.1946
513     1  0.1006  0.7130  0.1980
514     1  0.1032  0.7590  0.2015
515     1  0.1057  0.8050  0.2050
516     1  0.1083  0.8510  0.2085
517     1  0.1109  0.8969  0.2120
518     1  0.1135  0.9429  0.2154
519     1  0.1161  0.9889  0.2189
520     1  0.0530  0.3438  0.2078
521     1  0.0556  0.3898  0.2112
522     1  0.0581  0.4358  0.2147
523     1  0.0607  0.4818  0.2182
524     1  0.0633  0.5277  0.2217
525     1  0.0659  0.5737  0.2251
526     1  0.0685  0.6197  0.2286
527     1  0.0711  0.6657  0.2321
528     1  0.0737  0.7117  0.2356
529     1  0.0762  0.7577  0.2390
530     1  0.0788  0.8036  0.2425
531     1  0.0814  0.8496  0.2460
532     1  0.0840  0.8956  0.2495
533     1  0.0866  0.9416  0.2529
534     1  0.0892  0.9876  0.2564
535    11  0.0235  0.2965  0.2418
536    11  0.0261  0.3425  0.2453
537     1  0.0286  0.3885  0.2488
538     1  0.0312  0.4345  0.2522
539     1  0.0338  0.4804  0.2557
540     1  0.0364  0.5264  0.2592
541     1  0.0390  0.5724  0.2627
542     1  0.0416  0.6184  0.2661
543     1  0.0442  0.6644  0.2696
544     1  0.0468  0.7104  0.2731
545     1  0.0493  0.7563  0.2766
546     1  0.0519  0.8023  0.2800
547     1  0.0545  0.8483  0.2835
548     1  0.0571  0.8943  0.2870
549     1  0.0597  0.9403  0.2905
550     1  0.0623  0.9863  0.2939
551     1  0.0017  0.3871  0.2863
552     1  0.0043  0.4331  0.2897
553     1  0.0069  0.4791  0.2932
554     1  0.0095  0.5251  0.2967
555     1  0.0121  0.5711  0.3002
556     1  0.0147  0.6171  0.3036
557     1  0.0173  0.6631  0.3071
558     1  0.0198  0.7090  0.3106
559     1  0.0224  0.7550  0.3141
560     1  0.0250  0.8010  0.3176
561     1  0.0276  0.8470  0.3210
562     1  0.0302  0.8930  0.3245
563     1  0.0328  0.9390  0.3280
564    11  0.0354  0.9849  0.3315
565     1  0.0007  0.8457  0.3585
566    11  0.0033  0.8917  0.3620
567    11  0.0059  0.9376  0.3655
568    11  0.0085  0.9836  0.3690
569     1  0.2660  0.6952  0.0033
570     1  0.2686  0.7412  0.0068
571    11  0.2712  0.7872  0.0103
572    11  0.2210  0.3720  0.0165
573     1  0.2236  0.4180  0.0200
574     1  0.2262  0.4640  0.0235
575     1  0.2287  0.5100  0.0269
576     1  0.2313  0.5559  0.0304
577     1  0.2339  0.6019  0.0339
578     1  0.2365  0.6479  0.0374
579     1  0.2391  0.6939  0.0408
580     1  0.2417  0.7399  0.0443
581    11  0.2443  0.7859  0.0478
582    11  0.2468  0.8319  0.0513
583     1  0.1941  0.3707  0.0540
584     1  0.1967  0.4167  0.0575
585     1  0.1992  0.4627  0.0610
586     1  0.2018  0.5086  0.0645
587     1  0.2044  0.5546  0.0679
588     1  0.2070  0.6006  0.0714
589     1  0.2096  0.6466  0.0749
590     1  0.2122  0.6926  0.0784
591     1  0.2148  0.7386  0.0818
592     1  0.2174  0.7845  0.0853
593     1  0.2199  0.8305  0.0888
594    11  0.2225  0.8765  0.0923
595    11  0.1646  0.3234  0.0881
596    11  0.1672  0.3694  0.0915
597     1  0.1698  0.4153  0.0950
598     1  0.1723  0.4613  0.0985
599     1  0.1749  0.5073  0.1020
600     1  0.1775  0.5533  0.1054
601     1  0.1801  0.5993  0.1089
602     1  0.1827  0.6453  0.1124
603     1  0.1853  0.6913  0.1159
604     1  0.1879  0.7372  0.1194
605     1  0.1904  0.7832  0.1228
606     1  0.1930  0.8292  0.1263
607     1  0.1956  0.8752  0.1298
608    11  0.1982  0.9212  0.1333
609    11  0.1377  0.3221  0.1256
610     1  0.1403  0.3680  0.1291
611     1  0.1428  0.4140  0.1325
612     1  0.1454  0.4600  0.1360
613     1  0.1480  0.5060  0.1395
614     1  0.1506  0.5520  0.1430
615     1  0.1532  0.5980  0.1464
616     1  0.1558  0.6439  0.1499
617     1  0.1584  0.6899  0.1534
618     1  0.1609  0.7359  0.1569
619     1  0.1635  0.7819  0.1603
620     1  0.1661  0.8279  0.1638
621     1  0.1687  0.8739  0.1673
622     1  0.1713  0.9199  0.1708
623    11  0.1739  0.9658  0.1742
624    11  0.1108  0.3207  0.1631
625     1  0.1134  0.3667  0.1666
626     1  0.1159  0.4127  0.1701
627     1  0.1185  0.4587  0.1735
628     1  0.1211  0.5047  0.1770
629     1  0.1237  0.5507  0.1805
630     1  0.1263  0.5966  0.1840
631     1  0.1289  0.6426  0.1874
632     1  0.1315  0.6886  0.1909
633     1  0.1340  0.7346  0.1944
634     1  0.1366  0.7806  0.1979
635     1  0.1392  0.8266  0.2013
636     1  0.1418  0.8725  0.2048
637     1  0.1444  0.9185  0.2083
638     1  0.1470  0.9645  0.2118
639    11  0.0839  0.3194  0.2006
640     1  0.0864  0.3654  0.2041
641     1  0.0890  0.4114  0.2076
642     1  0.0916  0.4574  0.2110
643     1  0.0942  0.5033  0.2145
644     1  0.0968  0.5493  0.2180
645     1  0.0994  0.5953  0.2215
646     1  0.1020  0.6413  0.2250
647     1  0.1045  0.6873  0.2284
648     1  0.1071  0.7333  0.2319
649     1  0.1097  0.7793  0.2354
650     1  0.1123  0.8252  0.2389
651     1  0.1149  0.8712  0.2423
652     1  0.1175  0.9172  0.2458
653     1  0.1201  0.9632  0.2493
654     1  0.0569  0.3181  0.2381
655     1  0.0595  0.3641  0.2416
656     1  0.0621  0.4101  0.2451
657     1  0.0647  0.4560  0.2486
658     1  0.0673  0.5020  0.2520
659     1  0.0699  0.5480  0.2555
660     1  0.0725  0.5940  0.2590
661     1  0.0751  0.6400  0.2625
662     1  0.0776  0.6860  0.2659
663     1  0.0802  0.7319  0.2694
664     1  0.0828  0.7779  0.2729
665     1  0.0854  0.8239  0.2764
666     1  0.0880  0.8699  0.2798
667     1  0.0906  0.9159  0.2833
668     1  0.0932  0.9619  0.2868
669    11  0.0275  0.2708  0.2722
670     1  0.0300  0.3168  0.2757
671     1  0.0326  0.3628  0.2791
672     1  0.0352  0.4087  0.2826
673     1  0.0378  0.4547  0.2861
674     1  0.0404  0.5007  0.2896
675     1  0.0430  0.5467  0.2930
676     1  0.0456  0.5927  0.2965
677     1  0.0481  0.6387  0.3000
678     1  0.0507  0.6846  0.3035
679     1  0.0533  0.7306  0.3069
680     1  0.0559  0.7766  0.3104
681     1  0.0585  0.8226  0.3139
682     1  0.0611  0.8686  0.3174
683     1  0.0637  0.9146  0.3208
684     1  0.0662  0.9605  0.3243
685     1  0.0005  0.2695  0.3097
686     1  0.0031  0.3154  0.3132
687     1  0.0057  0.3614  0.3166
688     1  0.0083  0.4074  0.3201
689     1  0.0109  0.4534  0.3236
690     1  0.0135  0.4994  0.3271
691     1  0.0161  0.5454  0.3306
692     1  0.0186  0.5914  0.3340
693     1  0.0212  0.6373  0.3375
694     1  0.0238  0.6833  0.3410
695     1  0.0264  0.7293  0.3445
696     1  0.0290  0.7753  0.3479
697     1  0.0316  0.8213  0.3514
698     1  0.0342  0.8673  0.3549
699    11  0.0368  0.9132  0.3584
700     1  0.0393  0.9592  0.3618
701     1  0.0021  0.7740  0.3854
702    11  0.0047  0.8200  0.3889
703     1  0.0073  0.8659  0.3924
704    11  0.0098  0.9119  0.3959
705    11  0.0124  0.9579  0.3993
706    11  0.3021  0.7628  0.0031
707     1  0.2519  0.3476  0.0094
708     1  0.2545  0.3936  0.0128
709     1  0.2570  0.4396  0.0163
710     1  0.2596  0.4856  0.0198
711     1  0.2622  0.5316  0.0233
712     1  0.2648  0.5775  0.0268
713     1  0.2674  0.6235  0.0302
714     1  0.2700  0.6695  0.0337
715     1  0.2726  0.7155  0.0372
716     1  0.2751  0.7615  0.0407
717    11  0.2777  0.8075  0.0441
718    11  0.2250  0.3463  0.0469
719     1  0.2275  0.3923  0.0504
720     1  0.2301  0.4383  0.0538
721     1  0.2327  0.4842  0.0573
722     1  0.2353  0.5302  0.0608
723     1  0.2379  0.5762  0.0643
724     1  0.2405  0.6222  0.0677
725     1  0.2431  0.6682  0.0712
726     1  0.2457  0.7142  0.0747
727     1  0.2482  0.7602  0.0782
728     1  0.2508  0.8061  0.0816
729    11  0.2534  0.8521  0.0851
730    11  0.1981  0.3450  0.0844
731     1  0.2006  0.3910  0.0879
732     1  0.2032  0.4369  0.0914
733     1  0.2058  0.4829  0.0948
734     1  0.2084  0.5289  0.0983
735     1  0.2110  0.5749  0.1018
736     1  0.2136  0.6209  0.1053
737     1  0.2162  0.6669  0.1087
738     1  0.2187  0.7128  0.1122
739     1  0.2213  0.7588  0.1157
740     1  0.2239  0.8048  0.1192
741     1  0.2265  0.8508  0.1226
742    11  0.2291  0.8968  0.1261
743    11  0.1686  0.2977  0.1184
744     1  0.1711  0.3436  0.1219
745     1  0.1737  0.3896  0.1254
746     1  0.1763  0.4356  0.1289
747     1  0.1789  0.4816  0.1324
748     1  0.1815  0.5276  0.1358
749     1  0.1841  0.5736  0.1393
750     1  0.1867  0.6196  0.1428
751     1  0.1892  0.6655  0.1463
752     1  0.1918  0.7115  0.1497
753     1  0.1944  0.7575  0.1532
754     1  0.1970  0.8035  0.1567
755     1  0.1996  0.8495  0.1602
756     1  0.2022  0.8955  0.1636
757    11  0.2048  0.9414  0.1671
758    11  0.1417  0.2963  0.1560
759     1  0.1442  0.3423  0.1594
760     1  0.1468  0.3883  0.1629
761     1  0.1494  0.4343  0.1664
762     1  0.1520  0.4803  0.1699
763     1  0.1546  0.5263  0.1733
764     1  0.1572  0.5722  0.1768
765     1  0.1598  0.6182  0.1803
766     1  0.1623  0.6642  0.1838
767     1  0.1649  0.7102  0.1872
768     1  0.1675  0.7562  0.1907
769     1  0.1701  0.8022  0.1942
770     1  0.1727  0.8482  0.1977
771     1  0.1753  0.8941  0.2011
772     1  0.1779  0.9401  0.2046
773    11  0.1804  0.9861  0.2081
774    11  0.1147  0.2950  0.1935
775     1  0.1173  0.3410  0.1970
776     1  0.1199  0.3870  0.2004
777     1  0.1225  0.4330  0.2039
778     1  0.1251  0.4790  0.2074
779     1  0.1277  0.5249  0.2109
780     1  0.1303  0.5709  0.2143
781     1  0.1328  0.6169  0.2178
782     1  0.1354  0.6629  0.2213
783     1  0.1380  0.7089  0.2248
784     1  0.1406  0.7549  0.2282
785     1  0.1432  0.8008  0.2317
786     1  0.1458  0.8468  0.2352
787     1  0.1484  0.8928  0.2387
788     1  0.1509  0.9388  0.2421
789     1  0.1535  0.9848  0.2456
790    11  0.0878  0.2937  0.2310
791     1  0.0904  0.3397  0.2345
792     1  0.0930  0.3857  0.2380
793     1  0.0956  0.4316  0.2414
794     1  0.0982  0.4776  0.2449
795     1  0.1008  0.5236  0.2484
796     1  0.1034  0.5696  0.2519
797     1  0.1059  0.6156  0.2553
798     1  0.1085  0.6616  0.2588
799     1  0.1111  0.7076  0.2623
800     1  0.1137  0.7535  0.2658
801     1  0.1163  0.7995  0.2692
802     1  0.1189  0.8455  0.2727
803     1  0.1215  0.8915  0.2762
804     1  0.1240  0.9375  0.2797
805     1  0.1266  0.9835  0.2831
806    11  0.0609  0.2924  0.2685
807     1  0.0635  0.3384  0.2720
808     1  0.0661  0.3843  0.2755
809     1  0.0687  0.4303  0.2789
810     1  0.0713  0.4763  0.2824
811     1  0.0739  0.5223  0.2859
812     1  0.0764  0.5683  0.2894
813     1  0.0790  0.6143  0.2928
814     1  0.0816  0.6602  0.2963
815     1  0.0842  0.7062  0.2998
816     1  0.0868  0.7522  0.3033
817     1  0.0894  0.7982  0.3067
818     1  0.0920  0.8442  0.3102
819     1  0.0945  0.8902  0.3137
820     1  0.0971  0.9362  0.3172
821     1  0.0997  0.9821  0.3207
822    11  0.0314  0.2451  0.3026
823     1  0.0340  0.2911  0.3060
824     1  0.0366  0.3370  0.3095
825     1  0.0392  0.3830  0.3130
826     1  0.0418  0.4290  0.3165
827     1  0.0444  0.4750  0.3199
828     1  0.0469  0.5210  0.3234
829     1  0.0495  0.5670  0.3269
830     1  0.0521  0.6129  0.3304
831     1  0.0547  0.6589  0.3338
832     1  0.0573  0.7049  0.3373
833     1  0.0599  0.7509  0.3408
834     1  0.0625  0.7969  0.3443
835     1  0.0651  0.8429  0.3477
836     1  0.0676  0.8888  0.3512
837     1  0.0702  0.9348  0.3547
838    11  0.0728  0.9808  0.3582
839    11  0.0045  0.2437  0.3401
840     1  0.0071  0.2897  0.3435
841     1  0.0097  0.3357  0.3470
842     1  0.0123  0.3817  0.3505
843     1  0.0149  0.4277  0.3540
844     1  0.0175  0.4737  0.3575
845     1  0.0200  0.5197  0.3609
846     1  0.0226  0.5656  0.3644
847     1  0.0252  0.6116  0.3679
848     1  0.0278  0.6576  0.3714
849     1  0.0304  0.7036  0.3748
850     1  0.0330  0.7496  0.3783
851     1  0.0356  0.7956  0.3818
852     1  0.0381  0.8415  0.3853
853    11  0.0407  0.8875  0.3887
854    11  0.0433  0.9335  0.3922
855    11  0.0459  0.9795  0.3957
856     1  0.0009  0.6563  0.4089
857     1  0.0035  0.7023  0.4123
858    11  0.0061  0.7482  0.4158
859    11  0.0086  0.7942  0.4193
860    11  0.0112  0.8402  0.4228
861     1  0.0138  0.8862  0.4263
862    11  0.2828  0.3232  0.0022
863     1  0.2853  0.3692  0.0057
864     1  0.2879  0.4152  0.0092
865     1  0.2905  0.4612  0.0127
866     1  0.2931  0.5072  0.0161
867     1  0.2957  0.5531  0.0196
868     1  0.2983  0.5991  0.0231
869     1  0.3009  0.6451  0.0266
870    11  0.3034  0.6911  0.0300
871    11  0.3060  0.7371  0.0335
872    11  0.3086  0.7831  0.0370
873    11  0.2558  0.3219  0.0397
874     1  0.2584  0.3679  0.0432
875     1  0.2610  0.4139  0.0467
876     1  0.2636  0.4599  0.0502
877     1  0.2662  0.5058  0.0537
878     1  0.2688  0.5518  0.0571
879     1  0.2714  0.5978  0.0606
880     1  0.2740  0.6438  0.0641
881     1  0.2765  0.6898  0.0676