ITEM: TIMESTEP
0
ITEM: NUMBER OF ATOMS
2916
ITEM: BOX BOUNDS pp pp pp
-0.20000000 11.20000000
-0.20000000 11.20000000
-0.20000000 11.20000000
ITEM: ATOMS id type x y z 
0 2 8.8605e-02 8.8605e-02 8.8605e-02 
1 2 1.2200e+00 8.8605e-02 8.8605e-02 
2 2 2.3513e+00 8.8605e-02 8.8605e-02 
3 2 3.4827e+00 8.8605e-02 8.8605e-02 
4 2 4.6141e+00 8.8605e-02 8.8605e-02 
5 2 5.7455e+00 8.8605e-02 8.8605e-02 
6 2 6.8768e+00 8.8605e-02 8.8605e-02 
7 2 8.0082e+00 8.8605e-02 8.8605e-02 
8 2 9.1396e+00 8.8605e-02 8.8605e-02 
9 2 6.5429e-01 6.5429e-01 8.8605e-02 
10 2 1.7857e+00 6.5429e-01 8.8605e-02 
11 2 2.9170e+00 6.5429e-01 8.8605e-02 
12 2 4.0484e+00 6.5429e-01 8.8605e-02 
13 2 5.1798e+00 6.5429e-01 8.8605e-02 
14 2 6.3111e+00 6.5429e-01 8.8605e-02 
15 2 7.4425e+00 6.5429e-01 8.8605e-02 
16 2 8.5739e+00 6.5429e-01 8.8605e-02 
17 2 9.7053e+00 6.5429e-01 8.8605e-02 
18 2 8.8605e-02 1.2200e+00 8.8605e-02 
19 2 1.2200e+00 1.2200e+00 8.8605e-02 
20 2 2.3513e+00 1.2200e+00 8.8605e-02 
21 2 3.4827e+00 1.2200e+00 8.8605e-02 
22 2 4.6141e+00 1.2200e+00 8.8605e-02 
23 2 5.7455e+00 1.2200e+00 8.8605e-02 
24 2 6.8768e+00 1.2200e+00 8.8605e-02 
25 2 8.0082e+00 1.2200e+00 8.8605e-02 
26 2 9.1396e+00 1.2200e+00 8.8605e-02 
27 2 6.5429e-01 1.7857e+00 8.8605e-02 
28 2 1.7857e+00 1.7857e+00 8.8605e-02 
29 2 2.9170e+00 1.7857e+00 8.8605e-02 
30 2 4.0484e+00 1.7857e+00 8.8605e-02 
31 2 5.1798e+00 1.7857e+00 8.8605e-02 
32 2 6.3111e+00 1.7857e+00 8.8605e-02 
33 2 7.4425e+00 1.7857e+00 8.8605e-02 
34 2 8.5739e+00 1.7857e+00 8.8605e-02 
35 2 9.7053e+00 1.7857e+00 8.8605e-02 
36 2 8.8605e-02 2.3513e+00 8.8605e-02 
37 2 1.2200e+00 2.3513e+00 8.8605e-02 
38 2 2.3513e+00 2.3513e+00 8.8605e-02 
39 2 3.4827e+00 2.3513e+00 8.8605e-02 
40 2 4.6141e+00 2.3513e+00 8.8605e-02 
41 2 5.7455e+00 2.3513e+00 8.8605e-02 
42 2 6.8768e+00 2.3513e+00 8.8605e-02 
43 2 8.0082e+00 2.3513e+00 8.8605e-02 
44 2 9.1396e+00 2.3513e+00 8.8605e-02 
45 2 6.5429e-01 2.9170e+00 8.8605e-02 
46 2 1.7857e+00 2.9170e+00 8.8605e-02 
47 2 2.9170e+00 2.9170e+00 8.8605e-02 
48 2 4.0484e+00 2.9170e+00 8.8605e-02 
49 2 5.1798e+00 2.9170e+00 8.8605e-02 
50 2 6.3111e+00 2.9170e+00 8.8605e-02 
51 2 7.4425e+00 2.9170e+00 8.8605e-02 
52 2 8.5739e+00 2.9170e+00 8.8605e-02 
53 2 9.7053e+00 2.9170e+00 8.8605e-02 
54 2 8.8605e-02 3.4827e+00 8.8605e-02 
55 2 1.2200e+00 3.4827e+00 8.8605e-02 
56 2 2.3513e+00 3.4827e+00 8.8605e-02 
57 2 3.4827e+00 3.4827e+00 8.8605e-02 
58 2 4.6141e+00 3.4827e+00 8.8605e-02 
59 2 5.7455e+00 3.4827e+00 8.8605e-02 
60 2 6.8768e+00 3.4827e+00 8.8605e-02 
61 2 8.0082e+00 3.4827e+00 8.8605e-02 
62 2 9.1396e+00 3.4827e+00 8.8605e-02 
63 2 6.5429e-01 4.0484e+00 8.8605e-02 
64 2 1.7857e+00 4.0484e+00 8.8605e-02 
65 2 2.9170e+00 4.0484e+00 8.8605e-02 
66 2 4.0484e+00 4.0484e+00 8.8605e-02 
67 2 5.1798e+00 4.0484e+00 8.8605e-02 
68 2 6.3111e+00 4.0484e+00 8.8605e-02 
69 2 7.4425e+00 4.0484e+00 8.8605e-02 
70 2 8.5739e+00 4.0484e+00 8.8605e-02 
71 2 9.7053e+00 4.0484e+00 8.8605e-02 
72 2 8.8605e-02 4.6141e+00 8.8605e-02 
73 2 1.2200e+00 4.6141e+00 8.8605e-02 
74 2 2.3513e+00 4.6141e+00 8.8605e-02 
75 2 3.4827e+00 4.6141e+00 8.8605e-02 
76 2 4.6141e+00 4.6141e+00 8.8605e-02 
77 2 5.7455e+00 4.6141e+00 8.8605e-02 
78 2 6.8768e+00 4.6141e+00 8.8605e-02 
79 2 8.0082e+00 4.6141e+00 8.8605e-02 
80 2 9.1396e+00 4.6141e+00 8.8605e-02 
81 2 6.5429e-01 5.1798e+00 8.8605e-02 
82 2 1.7857e+00 5.1798e+00 8.8605e-02 
83 2 2.9170e+00 5.1798e+00 8.8605e-02 
84 2 4.0484e+00 5.1798e+00 8.8605e-02 
85 2 5.1798e+00 5.1798e+00 8.8605e-02 
86 2 6.3111e+00 5.1798e+00 8.8605e-02 
87 2 7.4425e+00 5.1798e+00 8.8605e-02 
88 2 8.5739e+00 5.1798e+00 8.8605e-02 
89 2 9.7053e+00 5.1798e+00 8.8605e-02 
90 2 8.8605e-02 5.7455e+00 8.8605e-02 
91 2 1.2200e+00 5.7455e+00 8.8605e-02 
92 2 2.3513e+00 5.7455e+00 8.8605e-02 
93 2 3.4827e+00 5.7455e+00 8.8605e-02 
94 2 4.6141e+00 5.7455e+00 8.8605e-02 
95 2 5.7455e+00 5.7455e+00 8.8605e-02 
96 2 6.8768e+00 5.7455e+00 8.8605e-02 
97 2 8.0082e+00 5.7455e+00 8.8605e-02 
98 2 9.1396e+00 5.7455e+00 8.8605e-02 
99 2 6.5429e-01 6.3111e+00 8.8605e-02 
100 2 1.7857e+00 6.3111e+00 8.8605e-02 
101 2 2.9170e+00 6.3111e+00 8.8605e-02 
102 2 4.0484e+00 6.3111e+00 8.8605e-02 
103 2 5.1798e+00 6.3111e+00 8.8605e-02 
104 2 6.3111e+00 6.3111e+00 8.8605e-02 
105 2 7.4425e+00 6.3111e+00 8.8605e-02 
106 2 8.5739e+00 6.3111e+00 8.8605e-02 
107 2 9.7053e+00 6.3111e+00 8.8605e-02 
108 2 8.8605e-02 6.8768e+00 8.8605e-02 
109 2 1.2200e+00 6.8768e+00 8.8605e-02 
110 2 2.3513e+00 6.8768e+00 8.8605e-02 
111 2 3.4827e+00 6.8768e+00 8.8605e-02 
112 2 4.6141e+00 6.8768e+00 8.8605e-02 
113 2 5.7455e+00 6.8768e+00 8.8605e-02 
114 2 6.8768e+00 6.8768e+00 8.8605e-02 
115 2 8.0082e+00 6.8768e+00 8.8605e-02 
116 2 9.1396e+00 6.8768e+00 8.8605e-02 
117 2 6.5429e-01 7.4425e+00 8.8605e-02 
118 2 1.7857e+00 7.4425e+00 8.8605e-02 
119 2 2.9170e+00 7.4425e+00 8.8605e-02 
120 2 4.0484e+00 7.4425e+00 8.8605e-02 
121 2 5.1798e+00 7.4425e+00 8.8605e-02 
122 2 6.3111e+00 7.4425e+00 8.8605e-02 
123 2 7.4425e+00 7.4425e+00 8.8605e-02 
124 2 8.5739e+00 7.4425e+00 8.8605e-02 
125 2 9.7053e+00 7.4425e+00 8.8605e-02 
126 2 8.8605e-02 8.0082e+00 8.8605e-02 
127 2 1.2200e+00 8.0082e+00 8.8605e-02 
128 2 2.3513e+00 8.0082e+00 8.8605e-02 
129 2 3.4827e+00 8.0082e+00 8.8605e-02 
130 2 4.6141e+00 8.0082e+00 8.8605e-02 
131 2 5.7455e+00 8.0082e+00 8.8605e-02 
132 2 6.8768e+00 8.0082e+00 8.8605e-02 
133 2 8.0082e+00 8.0082e+00 8.8605e-02 
134 2 9.1396e+00 8.0082e+00 8.8605e-02 
135 2 6.5429e-01 8.5739e+00 8.8605e-02 
136 2 1.7857e+00 8.5739e+00 8.8605e-02 
137 2 2.9170e+00 8.5739e+00 8.8605e-02 
138 2 4.0484e+00 8.5739e+00 8.8605e-02 
139 2 5.1798e+00 8.5739e+00 8.8605e-02 
140 2 6.3111e+00 8.5739e+00 8.8605e-02 
141 2 7.4425e+00 8.5739e+00 8.8605e-02 
142 2 8.5739e+00 8.5739e+00 8.8605e-02 
143 2 9.7053e+00 8.5739e+00 8.8605e-02 
144 2 8.8605e-02 9.1396e+00 8.8605e-02 
145 2 1.2200e+00 9.1396e+00 8.8605e-02 
146 2 2.3513e+00 9.1396e+00 8.8605e-02 
147 2 3.4827e+00 9.1396e+00 8.8605e-02 
148 2 4.6141e+00 9.1396e+00 8.8605e-02 
149 2 5.7455e+00 9.1396e+00 8.8605e-02 
150 2 6.8768e+00 9.1396e+00 8.8605e-02 
151 2 8.0082e+00 9.1396e+00 8.8605e-02 
152 2 9.1396e+00 9.1396e+00 8.8605e-02 
153 2 6.5429e-01 9.7053e+00 8.8605e-02 
154 2 1.7857e+00 9.7053e+00 8.8605e-02 
155 2 2.9170e+00 9.7053e+00 8.8605e-02 
156 2 4.0484e+00 9.7053e+00 8.8605e-02 
157 2 5.1798e+00 9.7053e+00 8.8605e-02 
158 2 6.3111e+00 9.7053e+00 8.8605e-02 
159 2 7.4425e+00 9.7053e+00 8.8605e-02 
160 2 8.5739e+00 9.7053e+00 8.8605e-02 
161 2 9.7053e+00 9.7053e+00 8.8605e-02 
162 0 6.5429e-01 8.8605e-02 6.5429e-01 
163 0 1.7857e+00 8.8605e-02 6.5429e-01 
164 0 2.9170e+00 8.8605e-02 6.5429e-01 
165 0 4.0484e+00 8.8605e-02 6.5429e-01 
166 0 5.1798e+00 8.8605e-02 6.5429e-01 
167 0 6.3111e+00 8.8605e-02 6.5429e-01 
168 0 7.4425e+00 8.8605e-02 6.5429e-01 
169 0 8.5739e+00 8.8605e-02 6.5429e-01 
170 0 9.7053e+00 8.8605e-02 6.5429e-01 
171 0 8.8605e-02 6.5429e-01 6.5429e-01 
172 0 1.2200e+00 6.5429e-01 6.5429e-01 
173 0 2.3513e+00 6.5429e-01 6.5429e-01 
174 0 3.4827e+00 6.5429e-01 6.5429e-01 
175 0 4.6141e+00 6.5429e-01 6.5429e-01 
176 0 5.7455e+00 6.5429e-01 6.5429e-01 
177 0 6.8768e+00 6.5429e-01 6.5429e-01 
178 0 8.0082e+00 6.5429e-01 6.5429e-01 
179 0 9.1396e+00 6.5429e-01 6.5429e-01 
180 0 6.5429e-01 1.2200e+00 6.5429e-01 
181 0 1.7857e+00 1.2200e+00 6.5429e-01 
182 0 2.9170e+00 1.2200e+00 6.5429e-01 
183 0 4.0484e+00 1.2200e+00 6.5429e-01 
184 0 5.1798e+00 1.2200e+00 6.5429e-01 
185 0 6.3111e+00 1.2200e+00 6.5429e-01 
186 0 7.4425e+00 1.2200e+00 6.5429e-01 
187 0 8.5739e+00 1.2200e+00 6.5429e-01 
188 0 9.7053e+00 1.2200e+00 6.5429e-01 
189 0 8.8605e-02 1.7857e+00 6.5429e-01 
190 0 1.2200e+00 1.7857e+00 6.5429e-01 
191 0 2.3513e+00 1.7857e+00 6.5429e-01 
192 0 3.4827e+00 1.7857e+00 6.5429e-01 
193 0 4.6141e+00 1.7857e+00 6.5429e-01 
194 0 5.7455e+00 1.7857e+00 6.5429e-01 
195 0 6.8768e+00 1.7857e+00 6.5429e-01 
196 0 8.0082e+00 1.7857e+00 6.5429e-01 
197 0 9.1396e+00 1.7857e+00 6.5429e-01 
198 0 6.5429e-01 2.3513e+00 6.5429e-01 
199 0 1.7857e+00 2.3513e+00 6.5429e-01 
200 0 2.9170e+00 2.3513e+00 6.5429e-01 
201 0 4.0484e+00 2.3513e+00 6.5429e-01 
202 0 5.1798e+00 2.3513e+00 6.5429e-01 
203 0 6.3111e+00 2.3513e+00 6.5429e-01 
204 0 7.4425e+00 2.3513e+00 6.5429e-01 
205 0 8.5739e+00 2.3513e+00 6.5429e-01 
206 0 9.7053e+00 2.3513e+00 6.5429e-01 
207 0 8.8605e-02 2.9170e+00 6.5429e-01 
208 0 1.2200e+00 2.9170e+00 6.5429e-01 
209 0 2.3513e+00 2.9170e+00 6.5429e-01 
210 0 3.4827e+00 2.9170e+00 6.5429e-01 
211 0 4.6141e+00 2.9170e+00 6.5429e-01 
212 0 5.7455e+00 2.9170e+00 6.5429e-01 
213 0 6.8768e+00 2.9170e+00 6.5429e-01 
214 0 8.0082e+00 2.9170e+00 6.5429e-01 
215 0 9.1396e+00 2.9170e+00 6.5429e-01 
216 0 6.5429e-01 3.4827e+00 6.5429e-01 
217 0 1.7857e+00 3.4827e+00 6.5429e-01 
218 0 2.9170e+00 3.4827e+00 6.5429e-01 
219 0 4.0484e+00 3.4827e+00 6.5429e-01 
220 0 5.1798e+00 3.4827e+00 6.5429e-01 
221 0 6.3111e+00 3.4827e+00 6.5429e-01 
222 0 7.4425e+00 3.4827e+00 6.5429e-01 
223 0 8.5739e+00 3.4827e+00 6.5429e-01 
224 0 9.7053e+00 3.4827e+00 6.5429e-01 
225 0 8.8605e-02 4.0484e+00 6.5429e-01 
226 0 1.2200e+00 4.0484e+00 6.5429e-01 
227 0 2.3513e+00 4.0484e+00 6.5429e-01 
228 0 3.4827e+00 4.0484e+00 6.5429e-01 
229 0 4.6141e+00 4.0484e+00 6.5429e-01 
230 0 5.7455e+00 4.0484e+00 6.5429e-01 
231 0 6.8768e+00 4.0484e+00 6.5429e-01 
232 0 8.0082e+00 4.0484e+00 6.5429e-01 
233 0 9.1396e+00 4.0484e+00 6.5429e-01 
234 0 6.5429e-01 4.6141e+00 6.5429e-01 
235 0 1.7857e+00 4.6141e+00 6.5429e-01 
236 0 2.9170e+00 4.6141e+00 6.5429e-01 
237 0 4.0484e+00 4.6141e+00 6.5429e-01 
238 0 5.1798e+00 4.6141e+00 6.5429e-01 
239 0 6.3111e+00 4.6141e+00 6.5429e-01 
240 0 7.4425e+00 4.6141e+00 6.5429e-01 
241 0 8.5739e+00 4.6141e+00 6.5429e-01 
242 0 9.7053e+00 4.6141e+00 6.5429e-01 
243 0 8.8605e-02 5.1798e+00 6.5429e-01 
244 0 1.2200e+00 5.1798e+00 6.5429e-01 
245 0 2.3513e+00 5.1798e+00 6.5429e-01 
246 0 3.4827e+00 5.1798e+00 6.5429e-01 
247 0 4.6141e+00 5.1798e+00 6.5429e-01 
248 0 5.7455e+00 5.1798e+00 6.5429e-01 
249 0 6.8768e+00 5.1798e+00 6.5429e-01 
250 0 8.0082e+00 5.1798e+00 6.5429e-01 
251 0 9.1396e+00 5.1798e+00 6.5429e-01 
252 0 6.5429e-01 5.7455e+00 6.5429e-01 
253 0 1.7857e+00 5.7455e+00 6.5429e-01 
254 0 2.9170e+00 5.7455e+00 6.5429e-01 
255 0 4.0484e+00 5.7455e+00 6.5429e-01 
256 0 5.1798e+00 5.7455e+00 6.5429e-01 
257 0 6.3111e+00 5.7455e+00 6.5429e-01 
258 0 7.4425e+00 5.7455e+00 6.5429e-01 
259 0 8.5739e+00 5.7455e+00 6.5429e-01 
260 0 9.7053e+00 5.7455e+00 6.5429e-01 
261 0 8.8605e-02 6.3111e+00 6.5429e-01 
262 0 1.2200e+00 6.3111e+00 6.5429e-01 
263 0 2.3513e+00 6.3111e+00 6.5429e-01 
264 0 3.4827e+00 6.3111e+00 6.5429e-01 
265 0 4.6141e+00 6.3111e+00 6.5429e-01 
266 0 5.7455e+00 6.3111e+00 6.5429e-01 
267 0 6.8768e+00 6.3111e+00 6.5429e-01 
268 0 8.0082e+00 6.3111e+00 6.5429e-01 
269 0 9.1396e+00 6.3111e+00 6.5429e-01 
270 0 6.5429e-01 6.8768e+00 6.5429e-01 
271 0 1.7857e+00 6.8768e+00 6.5429e-01 
272 0 2.9170e+00 6.8768e+00 6.5429e-01 
273 0 4.0484e+00 6.8768e+00 6.5429e-01 
274 0 5.1798e+00 6.8768e+00 6.5429e-01 
275 0 6.3111e+00 6.8768e+00 6.5429e-01 
276 0 7.4425e+00 6.8768e+00 6.5429e-01 
277 0 8.5739e+00 6.8768e+00 6.5429e-01 
278 0 9.7053e+00 6.8768e+00 6.5429e-01 
279 0 8.8605e-02 7.4425e+00 6.5429e-01 
280 0 1.2200e+00 7.4425e+00 6.5429e-01 
281 0 2.3513e+00 7.4425e+00 6.5429e-01 
282 0 3.4827e+00 7.4425e+00 6.5429e-01 
283 0 4.6141e+00 7.4425e+00 6.5429e-01 
284 0 5.7455e+00 7.4425e+00 6.5429e-01 
285 0 6.8768e+00 7.4425e+00 6.5429e-01 
286 0 8.0082e+00 7.4425e+00 6.5429e-01 
287 0 9.1396e+00 7.4425e+00 6.5429e-01 
288 0 6.5429e-01 8.0082e+00 6.5429e-01 
289 0 1.7857e+00 8.0082e+00 6.5429e-01 
290 0 2.9170e+00 8.0082e+00 6.5429e-01 
291 0 4.0484e+00 8.0082e+00 6.5429e-01 
292 0 5.1798e+00 8.0082e+00 6.5429e-01 
293 0 6.3111e+00 8.0082e+00 6.5429e-01 
294 0 7.4425e+00 8.0082e+00 6.5429e-01 
295 0 8.5739e+00 8.0082e+00 6.5429e-01 
296 0 9.7053e+00 8.0082e+00 6.5429e-01 
297 0 8.8605e-02 8.5739e+00 6.5429e-01 
298 0 1.2200e+00 8.5739e+00 6.5429e-01 
299 0 2.3513e+00 8.5739e+00 6.5429e-01 
300 0 3.4827e+00 8.5739e+00 6.5429e-01 
301 0 4.6141e+00 8.5739e+00 6.5429e-01 
302 0 5.7455e+00 8.5739e+00 6.5429e-01 
303 0 6.8768e+00 8.5739e+00 6.5429e-01 
304 0 8.0082e+00 8.5739e+00 6.5429e-01 
305 0 9.1396e+00 8.5739e+00 6.5429e-01 
306 0 6.5429e-01 9.1396e+00 6.5429e-01 
307 0 1.7857e+00 9.1396e+00 6.5429e-01 
308 0 2.9170e+00 9.1396e+00 6.5429e-01 
309 0 4.0484e+00 9.1396e+00 6.5429e-01 
310 0 5.1798e+00 9.1396e+00 6.5429e-01 
311 0 6.3111e+00 9.1396e+00 6.5429e-01 
312 0 7.4425e+00 9.1396e+00 6.5429e-01 
313 0 8.5739e+00 9.1396e+00 6.5429e-01 
314 0 9.7053e+00 9.1396e+00 6.5429e-01 
315 0 8.8605e-02 9.7053e+00 6.5429e-01 
316 0 1.2200e+00 9.7053e+00 6.5429e-01 
317 0 2.3513e+00 9.7053e+00 6.5429e-01 
318 0 3.4827e+00 9.7053e+00 6.5429e-01 
319 0 4.6141e+00 9.7053e+00 6.5429e-01 
320 0 5.7455e+00 9.7053e+00 6.5429e-01 
321 0 6.8768e+00 9.7053e+00 6.5429e-01 
322 0 8.0082e+00 9.7053e+00 6.5429e-01 
323 0 9.1396e+00 9.7053e+00 6.5429e-01 
324 0 8.8605e-02 8.8605e-02 1.2200e+00 
325 0 1.2200e+00 8.8605e-02 1.2200e+00 
326 0 2.3513e+00 8.8605e-02 1.2200e+00 
327 0 3.4827e+00 8.8605e-02 1.2200e+00 
328 0 4.6141e+00 8.8605e-02 1.2200e+00 
329 0 5.7455e+00 8.8605e-02 1.2200e+00 
330 0 6.8768e+00 8.8605e-02 1.2200e+00 
331 0 8.0082e+00 8.8605e-02 1.2200e+00 
332 0 9.1396e+00 8.8605e-02 1.2200e+00 
333 0 6.5429e-01 6.5429e-01 1.2200e+00 
334 0 1.7857e+00 6.5429e-01 1.2200e+00 
335 0 2.9170e+00 6.5429e-01 1.2200e+00 
336 0 4.0484e+00 6.5429e-01 1.2200e+00 
337 0 5.1798e+00 6.5429e-01 1.2200e+00 
338 0 6.3111e+00 6.5429e-01 1.2200e+00 
339 0 7.4425e+00 6.5429e-01 1.2200e+00 
340 0 8.5739e+00 6.5429e-01 1.2200e+00 
341 0 9.7053e+00 6.5429e-01 1.2200e+00 
342 0 8.8605e-02 1.2200e+00 1.2200e+00 
343 3 1.2200e+00 1.2200e+00 1.2200e+00 
344 3 2.3513e+00 1.2200e+00 1.2200e+00 
345 3 3.4827e+00 1.2200e+00 1.2200e+00 
346 3 4.6141e+00 1.2200e+00 1.2200e+00 
347 3 5.7455e+00 1.2200e+00 1.2200e+00 
348 3 6.8768e+00 1.2200e+00 1.2200e+00 
349 3 8.0082e+00 1.2200e+00 1.2200e+00 
350 0 9.1396e+00 1.2200e+00 1.2200e+00 
351 0 6.5429e-01 1.7857e+00 1.2200e+00 
352 3 1.7857e+00 1.7857e+00 1.2200e+00 
353 3 2.9170e+00 1.7857e+00 1.2200e+00 
354 3 4.0484e+00 1.7857e+00 1.2200e+00 
355 3 5.1798e+00 1.7857e+00 1.2200e+00 
356 3 6.3111e+00 1.7857e+00 1.2200e+00 
357 3 7.4425e+00 1.7857e+00 1.2200e+00 
358 3 8.5739e+00 1.7857e+00 1.2200e+00 
359 0 9.7053e+00 1.7857e+00 1.2200e+00 
360 0 8.8605e-02 2.3513e+00 1.2200e+00 
361 3 1.2200e+00 2.3513e+00 1.2200e+00 
362 3 2.3513e+00 2.3513e+00 1.2200e+00 
363 3 3.4827e+00 2.3513e+00 1.2200e+00 
364 3 4.6141e+00 2.3513e+00 1.2200e+00 
365 3 5.7455e+00 2.3513e+00 1.2200e+00 
366 3 6.8768e+00 2.3513e+00 1.2200e+00 
367 3 8.0082e+00 2.3513e+00 1.2200e+00 
368 0 9.1396e+00 2.3513e+00 1.2200e+00 
369 0 6.5429e-01 2.9170e+00 1.2200e+00 
370 3 1.7857e+00 2.9170e+00 1.2200e+00 
371 3 2.9170e+00 2.9170e+00 1.2200e+00 
372 3 4.0484e+00 2.9170e+00 1.2200e+00 
373 3 5.1798e+00 2.9170e+00 1.2200e+00 
374 3 6.3111e+00 2.9170e+00 1.2200e+00 
375 3 7.4425e+00 2.9170e+00 1.2200e+00 
376 3 8.5739e+00 2.9170e+00 1.2200e+00 
377 0 9.7053e+00 2.9170e+00 1.2200e+00 
378 0 8.8605e-02 3.4827e+00 1.2200e+00 
379 3 1.2200e+00 3.4827e+00 1.2200e+00 
380 3 2.3513e+00 3.4827e+00 1.2200e+00 
381 3 3.4827e+00 3.4827e+00 1.2200e+00 
382 3 4.6141e+00 3.4827e+00 1.2200e+00 
383 3 5.7455e+00 3.4827e+00 1.2200e+00 
384 3 6.8768e+00 3.4827e+00 1.2200e+00 
385 3 8.0082e+00 3.4827e+00 1.2200e+00 
386 0 9.1396e+00 3.4827e+00 1.2200e+00 
387 0 6.5429e-01 4.0484e+00 1.2200e+00 
388 3 1.7857e+00 4.0484e+00 1.2200e+00 
389 3 2.9170e+00 4.0484e+00 1.2200e+00 
390 3 4.0484e+00 4.0484e+00 1.2200e+00 
391 3 5.1798e+00 4.0484e+00 1.2200e+00 
392 3 6.3111e+00 4.0484e+00 1.2200e+00 
393 3 7.4425e+00 4.0484e+00 1.2200e+00 
394 3 8.5739e+00 4.0484e+00 1.2200e+00 
395 0 9.7053e+00 4.0484e+00 1.2200e+00 
396 0 8.8605e-02 4.6141e+00 1.2200e+00 
397 3 1.2200e+00 4.6141e+00 1.2200e+00 
398 3 2.3513e+00 4.6141e+00 1.2200e+00 
399 3 3.4827e+00 4.6141e+00 1.2200e+00 
400 3 4.6141e+00 4.6141e+00 1.2200e+00 
401 3 5.7455e+00 4.6141e+00 1.2200e+00 
402 3 6.8768e+00 4.6141e+00 1.2200e+00 
403 3 8.0082e+00 4.6141e+00 1.2200e+00 
404 0 9.1396e+00 4.6141e+00 1.2200e+00 
405 0 6.5429e-01 5.1798e+00 1.2200e+00 
406 3 1.7857e+00 5.1798e+00 1.2200e+00 
407 3 2.9170e+00 5.1798e+00 1.2200e+00 
408 3 4.0484e+00 5.1798e+00 1.2200e+00 
409 3 5.1798e+00 5.1798e+00 1.2200e+00 
410 3 6.3111e+00 5.1798e+00 1.2200e+00 
411 3 7.4425e+00 5.1798e+00 1.2200e+00 
412 3 8.5739e+00 5.1798e+00 1.2200e+00 
413 0 9.7053e+00 5.1798e+00 1.2200e+00 
414 0 8.8605e-02 5.7455e+00 1.2200e+00 
415 3 1.2200e+00 5.7455e+00 1.2200e+00 
416 3 2.3513e+00 5.7455e+00 1.2200e+00 
417 3 3.4827e+00 5.7455e+00 1.2200e+00 
418 3 4.6141e+00 5.7455e+00 1.2200e+00 
419 3 5.7455e+00 5.7455e+00 1.2200e+00 
420 3 6.8768e+00 5.7455e+00 1.2200e+00 
421 3 8.0082e+00 5.7455e+00 1.2200e+00 
422 0 9.1396e+00 5.7455e+00 1.2200e+00 
423 0 6.5429e-01 6.3111e+00 1.2200e+00 
424 3 1.7857e+00 6.3111e+00 1.2200e+00 
425 3 2.9170e+00 6.3111e+00 1.2200e+00 
426 3 4.0484e+00 6.3111e+00 1.2200e+00 
427 3 5.1798e+00 6.3111e+00 1.2200e+00 
428 3 6.3111e+00 6.3111e+00 1.2200e+00 
429 3 7.4425e+00 6.3111e+00 1.2200e+00 
430 3 8.5739e+00 6.3111e+00 1.2200e+00 
431 0 9.7053e+00 6.3111e+00 1.2200e+00 
432 0 8.8605e-02 6.8768e+00 1.2200e+00 
433 3 1.2200e+00 6.8768e+00 1.2200e+00 
434 3 2.3513e+00 6.8768e+00 1.2200e+00 
435 3 3.4827e+00 6.8768e+00 1.2200e+00 
436 3 4.6141e+00 6.8768e+00 1.2200e+00 
437 3 5.7455e+00 6.8768e+00 1.2200e+00 
438 3 6.8768e+00 6.8768e+00 1.2200e+00 
439 3 8.0082e+00 6.8768e+00 1.2200e+00 
440 0 9.1396e+00 6.8768e+00 1.2200e+00 
441 0 6.5429e-01 7.4425e+00 1.2200e+00 
442 3 1.7857e+00 7.4425e+00 1.2200e+00 
443 3 2.9170e+00 7.4425e+00 1.2200e+00 
444 3 4.0484e+00 7.4425e+00 1.2200e+00 
445 3 5.1798e+00 7.4425e+00 1.2200e+00 
446 3 6.3111e+00 7.4425e+00 1.2200e+00 
447 3 7.4425e+00 7.4425e+00 1.2200e+00 
448 3 8.5739e+00 7.4425e+00 1.2200e+00 
449 0 9.7053e+00 7.4425e+00 1.2200e+00 
450 0 8.8605e-02 8.0082e+00 1.2200e+00 
451 3 1.2200e+00 8.0082e+00 1.2200e+00 
452 3 2.3513e+00 8.0082e+00 1.2200e+00 
453 3 3.4827e+00 8.0082e+00 1.2200e+00 
454 3 4.6141e+00 8.0082e+00 1.2200e+00 
455 3 5.7455e+00 8.0082e+00 1.2200e+00 
456 3 6.8768e+00 8.0082e+00 1.2200e+00 
457 3 8.0082e+00 8.0082e+00 1.2200e+00 
458 0 9.1396e+00 8.0082e+00 1.2200e+00 
459 0 6.5429e-01 8.5739e+00 1.2200e+00 
460 3 1.7857e+00 8.5739e+00 1.2200e+00 
461 3 2.9170e+00 8.5739e+00 1.2200e+00 
462 3 4.0484e+00 8.5739e+00 1.2200e+00 
463 3 5.1798e+00 8.5739e+00 1.2200e+00 
464 3 6.3111e+00 8.5739e+00 1.2200e+00 
465 3 7.4425e+00 8.5739e+00 1.2200e+00 
466 3 8.5739e+00 8.5739e+00 1.2200e+00 
467 0 9.7053e+00 8.5739e+00 1.2200e+00 
468 0 8.8605e-02 9.1396e+00 1.2200e+00 
469 0 1.2200e+00 9.1396e+00 1.2200e+00 
470 0 2.3513e+00 9.1396e+00 1.2200e+00 
471 0 3.4827e+00 9.1396e+00 1.2200e+00 
472 0 4.6141e+00 9.1396e+00 1.2200e+00 
473 0 5.7455e+00 9.1396e+00 1.2200e+00 
474 0 6.8768e+00 9.1396e+00 1.2200e+00 
475 0 8.0082e+00 9.1396e+00 1.2200e+00 
476 0 9.1396e+00 9.1396e+00 1.2200e+00 
477 0 6.5429e-01 9.7053e+00 1.2200e+00 
478 0 1.7857e+00 9.7053e+00 1.2200e+00 
479 0 2.9170e+00 9.7053e+00 1.2200e+00 
480 0 4.0484e+00 9.7053e+00 1.2200e+00 
481 0 5.1798e+00 9.7053e+00 1.2200e+00 
482 0 6.3111e+00 9.7053e+00 1.2200e+00 
483 0 7.4425e+00 9.7053e+00 1.2200e+00 
484 0 8.5739e+00 9.7053e+00 1.2200e+00 
485 0 9.7053e+00 9.7053e+00 1.2200e+00 
486 0 6.5429e-01 8.8605e-02 1.7857e+00 
487 0 1.7857e+00 8.8605e-02 1.7857e+00 
488 0 2.9170e+00 8.8605e-02 1.7857e+00 
489 0 4.0484e+00 8.8605e-02 1.7857e+00 
490 0 5.1798e+00 8.8605e-02 1.7857e+00 
491 0 6.3111e+00 8.8605e-02 1.7857e+00 
492 0 7.4425e+00 8.8605e-02 1.7857e+00 
493 0 8.5739e+00 8.8605e-02 1.7857e+00 
494 0 9.7053e+00 8.8605e-02 1.7857e+00 
495 0 8.8605e-02 6.5429e-01 1.7857e+00 
496 0 1.2200e+00 6.5429e-01 1.7857e+00 
497 0 2.3513e+00 6.5429e-01 1.7857e+00 
498 0 3.4827e+00 6.5429e-01 1.7857e+00 
499 0 4.6141e+00 6.5429e-01 1.7857e+00 
500 0 5.7455e+00 6.5429e-01 1.7857e+00 
501 0 6.8768e+00 6.5429e-01 1.7857e+00 
502 0 8.0082e+00 6.5429e-01 1.7857e+00 
503 0 9.1396e+00 6.5429e-01 1.7857e+00 
504 0 6.5429e-01 1.2200e+00 1.7857e+00 
505 3 1.7857e+00 1.2200e+00 1.7857e+00 
506 3 2.9170e+00 1.2200e+00 1.7857e+00 
507 3 4.0484e+00 1.2200e+00 1.7857e+00 
508 3 5.1798e+00 1.2200e+00 1.7857e+00 
509 3 6.3111e+00 1.2200e+00 1.7857e+00 
510 3 7.4425e+00 1.2200e+00 1.7857e+00 
511 3 8.5739e+00 1.2200e+00 1.7857e+00 
512 0 9.7053e+00 1.2200e+00 1.7857e+00 
513 0 8.8605e-02 1.7857e+00 1.7857e+00 
514 3 1.2200e+00 1.7857e+00 1.7857e+00 
515 3 2.3513e+00 1.7857e+00 1.7857e+00 
516 3 3.4827e+00 1.7857e+00 1.7857e+00 
517 3 4.6141e+00 1.7857e+00 1.7857e+00 
518 3 5.7455e+00 1.7857e+00 1.7857e+00 
519 3 6.8768e+00 1.7857e+00 1.7857e+00 
520 3 8.0082e+00 1.7857e+00 1.7857e+00 
521 0 9.1396e+00 1.7857e+00 1.7857e+00 
522 0 6.5429e-01 2.3513e+00 1.7857e+00 
523 3 1.7857e+00 2.3513e+00 1.7857e+00 
524 3 2.9170e+00 2.3513e+00 1.7857e+00 
525 3 4.0484e+00 2.3513e+00 1.7857e+00 
526 3 5.1798e+00 2.3513e+00 1.7857e+00 
527 3 6.3111e+00 2.3513e+00 1.7857e+00 
528 3 7.4425e+00 2.3513e+00 1.7857e+00 
529 3 8.5739e+00 2.3513e+00 1.7857e+00 
530 0 9.7053e+00 2.3513e+00 1.7857e+00 
531 0 8.8605e-02 2.9170e+00 1.7857e+00 
532 3 1.2200e+00 2.9170e+00 1.7857e+00 
533 3 2.3513e+00 2.9170e+00 1.7857e+00 
534 3 3.4827e+00 2.9170e+00 1.7857e+00 
535 3 4.6141e+00 2.9170e+00 1.7857e+00 
536 3 5.7455e+00 2.9170e+00 1.7857e+00 
537 3 6.8768e+00 2.9170e+00 1.7857e+00 
538 3 8.0082e+00 2.9170e+00 1.7857e+00 
539 0 9.1396e+00 2.9170e+00 1.7857e+00 
540 0 6.5429e-01 3.4827e+00 1.7857e+00 
541 3 1.7857e+00 3.4827e+00 1.7857e+00 
542 3 2.9170e+00 3.4827e+00 1.7857e+00 
543 3 4.0484e+00 3.4827e+00 1.7857e+00 
544 3 5.1798e+00 3.4827e+00 1.7857e+00 
545 3 6.3111e+00 3.4827e+00 1.7857e+00 
546 3 7.4425e+00 3.4827e+00 1.7857e+00 
547 3 8.5739e+00 3.4827e+00 1.7857e+00 
548 0 9.7053e+00 3.4827e+00 1.7857e+00 
549 0 8.8605e-02 4.0484e+00 1.7857e+00 
550 3 1.2200e+00 4.0484e+00 1.7857e+00 
551 3 2.3513e+00 4.0484e+00 1.7857e+00 
552 3 3.4827e+00 4.0484e+00 1.7857e+00 
553 3 4.6141e+00 4.0484e+00 1.7857e+00 
554 3 5.7455e+00 4.0484e+00 1.7857e+00 
555 3 6.8768e+00 4.0484e+00 1.7857e+00 
556 3 8.0082e+00 4.0484e+00 1.7857e+00 
557 0 9.1396e+00 4.0484e+00 1.7857e+00 
558 0 6.5429e-01 4.6141e+00 1.7857e+00 
559 3 1.7857e+00 4.6141e+00 1.7857e+00 
560 3 2.9170e+00 4.6141e+00 1.7857e+00 
561 3 4.0484e+00 4.6141e+00 1.7857e+00 
562 3 5.1798e+00 4.6141e+00 1.7857e+00 
563 3 6.3111e+00 4.6141e+00 1.7857e+00 
564 3 7.4425e+00 4.6141e+00 1.7857e+00 
565 3 8.5739e+00 4.6141e+00 1.7857e+00 
566 0 9.7053e+00 4.6141e+00 1.7857e+00 
567 0 8.8605e-02 5.1798e+00 1.7857e+00 
568 3 1.2200e+00 5.1798e+00 1.7857e+00 
569 3 2.3513e+00 5.1798e+00 1.7857e+00 
570 3 3.4827e+00 5.1798e+00 1.7857e+00 
571 3 4.6141e+00 5.1798e+00 1.7857e+00 
572 3 5.7455e+00 5.1798e+00 1.7857e+00 
573 3 6.8768e+00 5.1798e+00 1.7857e+00 
574 3 8.0082e+00 5.1798e+00 1.7857e+00 
575 0 9.1396e+00 5.1798e+00 1.7857e+00 
576 0 6.5429e-01 5.7455e+00 1.7857e+00 
577 3 1.7857e+00 5.7455e+00 1.7857e+00 
578 3 2.9170e+00 5.7455e+00 1.7857e+00 
579 3 4.0484e+00 5.7455e+00 1.7857e+00 
580 3 5.1798e+00 5.7455e+00 1.7857e+00 
581 3 6.3111e+00 5.7455e+00 1.7857e+00 
582 3 7.4425e+00 5.7455e+00 1.7857e+00 
583 3 8.5739e+00 5.7455e+00 1.7857e+00 
584 0 9.7053e+00 5.7455e+00 1.7857e+00 
585 0 8.8605e-02 6.3111e+00 1.7857e+00 
586 3 1.2200e+00 6.3111e+00 1.7857e+00 
587 3 2.3513e+00 6.3111e+00 1.7857e+00 
588 3 3.4827e+00 6.3111e+00 1.7857e+00 
589 3 4.6141e+00 6.3111e+00 1.7857e+00 
590 3 5.7455e+00 6.3111e+00 1.7857e+00 
591 3 6.8768e+00 6.3111e+00 1.7857e+00 
592 3 8.0082e+00 6.3111e+00 1.7857e+00 
593 0 9.1396e+00 6.3111e+00 1.7857e+00 
594 0 6.5429e-01 6.8768e+00 1.7857e+00 
595 3 1.7857e+00 6.8768e+00 1.7857e+00 
596 3 2.9170e+00 6.8768e+00 1.7857e+00 
597 3 4.0484e+00 6.8768e+00 1.7857e+00 
598 3 5.1798e+00 6.8768e+00 1.7857e+00 
599 3 6.3111e+00 6.8768e+00 1.7857e+00 
600 3 7.4425e+00 6.8768e+00 1.7857e+00 
601 3 8.5739e+00 6.8768e+00 1.7857e+00 
602 0 9.7053e+00 6.8768e+00 1.7857e+00 
603 0 8.8605e-02 7.4425e+00 1.7857e+00 
604 3 1.2200e+00 7.4425e+00 1.7857e+00 
605 3 2.3513e+00 7.4425e+00 1.7857e+00 
606 3 3.4827e+00 7.4425e+00 1.7857e+00 
607 3 4.6141e+00 7.4425e+00 1.7857e+00 
608 3 5.7455e+00 7.4425e+00 1.7857e+00 
609 3 6.8768e+00 7.4425e+00 1.7857e+00 
610 3 8.0082e+00 7.4425e+00 1.7857e+00 
611 0 9.1396e+00 7.4425e+00 1.7857e+00 
612 0 6.5429e-01 8.0082e+00 1.7857e+00 
613 3 1.7857e+00 8.0082e+00 1.7857e+00 
614 3 2.9170e+00 8.0082e+00 1.7857e+00 
615 3 4.0484e+00 8.0082e+00 1.7857e+00 
616 3 5.1798e+00 8.0082e+00 1.7857e+00 
617 3 6.3111e+00 8.0082e+00 1.7857e+00 
618 3 7.4425e+00 8.0082e+00 1.7857e+00 
619 3 8.5739e+00 8.0082e+00 1.7857e+00 
620 0 9.7053e+00 8.0082e+00 1.7857e+00 
621 0 8.8605e-02 8.5739e+00 1.7857e+00 
622 3 1.2200e+00 8.5739e+00 1.7857e+00 
623 3 2.3513e+00 8.5739e+00 1.7857e+00 
624 3 3.4827e+00 8.5739e+00 1.7857e+00 
625 3 4.6141e+00 8.5739e+00 1.7857e+00 
626 3 5.7455e+00 8.5739e+00 1.7857e+00 
627 3 6.8768e+00 8.5739e+00 1.7857e+00 
628 3 8.0082e+00 8.5739e+00 1.7857e+00 
629 0 9.1396e+00 8.5739e+00 1.7857e+00 
630 0 6.5429e-01 9.1396e+00 1.7857e+00 
631 0 1.7857e+00 9.1396e+00 1.7857e+00 
632 0 2.9170e+00 9.1396e+00 1.7857e+00 
633 0 4.0484e+00 9.1396e+00 1.7857e+00 
634 0 5.1798e+00 9.1396e+00 1.7857e+00 
635 0 6.3111e+00 9.1396e+00 1.7857e+00 
636 0 7.4425e+00 9.1396e+00 1.7857e+00 
637 0 8.5739e+00 9.1396e+00 1.7857e+00 
638 0 9.7053e+00 9.1396e+00 1.7857e+00 
639 0 8.8605e-02 9.7053e+00 1.7857e+00 
640 0 1.2200e+00 9.7053e+00 1.7857e+00 
641 0 2.3513e+00 9.7053e+00 1.7857e+00 
642 0 3.4827e+00 9.7053e+00 1.7857e+00 
643 0 4.6141e+00 9.7053e+00 1.7857e+00 
644 0 5.7455e+00 9.7053e+00 1.7857e+00 
645 0 6.8768e+00 9.7053e+00 1.7857e+00 
646 0 8.0082e+00 9.7053e+00 1.7857e+00 
647 0 9.1396e+00 9.7053e+00 1.7857e+00 
648 0 8.8605e-02 8.8605e-02 2.3513e+00 
649 0 1.2200e+00 8.8605e-02 2.3513e+00 
650 0 2.3513e+00 8.8605e-02 2.3513e+00 
651 0 3.4827e+00 8.8605e-02 2.3513e+00 
652 0 4.6141e+00 8.8605e-02 2.3513e+00 
653 0 5.7455e+00 8.8605e-02 2.3513e+00 
654 0 6.8768e+00 8.8605e-02 2.3513e+00 
655 0 8.0082e+00 8.8605e-02 2.3513e+00 
656 0 9.1396e+00 8.8605e-02 2.3513e+00 
657 0 6.5429e-01 6.5429e-01 2.3513e+00 
658 0 1.7857e+00 6.5429e-01 2.3513e+00 
659 0 2.9170e+00 6.5429e-01 2.3513e+00 
660 0 4.0484e+00 6.5429e-01 2.3513e+00 
661 0 5.1798e+00 6.5429e-01 2.3513e+00 
662 0 6.3111e+00 6.5429e-01 2.3513e+00 
663 0 7.4425e+00 6.5429e-01 2.3513e+00 
664 0 8.5739e+00 6.5429e-01 2.3513e+00 
665 0 9.7053e+00 6.5429e-01 2.3513e+00 
666 0 8.8605e-02 1.2200e+00 2.3513e+00 
667 3 1.2200e+00 1.2200e+00 2.3513e+00 
668 3 2.3513e+00 1.2200e+00 2.3513e+00 
669 3 3.4827e+00 1.2200e+00 2.3513e+00 
670 3 4.6141e+00 1.2200e+00 2.3513e+00 
671 3 5.7455e+00 1.2200e+00 2.3513e+00 
672 3 6.8768e+00 1.2200e+00 2.3513e+00 
673 3 8.0082e+00 1.2200e+00 2.3513e+00 
674 0 9.1396e+00 1.2200e+00 2.3513e+00 
675 0 6.5429e-01 1.7857e+00 2.3513e+00 
676 3 1.7857e+00 1.7857e+00 2.3513e+00 
677 3 2.9170e+00 1.7857e+00 2.3513e+00 
678 3 4.0484e+00 1.7857e+00 2.3513e+00 
679 3 5.1798e+00 1.7857e+00 2.3513e+00 
680 3 6.3111e+00 1.7857e+00 2.3513e+00 
681 3 7.4425e+00 1.7857e+00 2.3513e+00 
682 3 8.5739e+00 1.7857e+00 2.3513e+00 
683 0 9.7053e+00 1.7857e+00 2.3513e+00 
684 0 8.8605e-02 2.3513e+00 2.3513e+00 
685 3 1.2200e+00 2.3513e+00 2.3513e+00 
686 3 2.3513e+00 2.3513e+00 2.3513e+00 
687 3 3.4827e+00 2.3513e+00 2.3513e+00 
688 3 4.6141e+00 2.3513e+00 2.3513e+00 
689 3 5.7455e+00 2.3513e+00 2.3513e+00 
690 3 6.8768e+00 2.3513e+00 2.3513e+00 
691 3 8.0082e+00 2.3513e+00 2.3513e+00 
692 0 9.1396e+00 2.3513e+00 2.3513e+00 
693 0 6.5429e-01 2.9170e+00 2.3513e+00 
694 3 1.7857e+00 2.9170e+00 2.3513e+00 
695 3 2.9170e+00 2.9170e+00 2.3513e+00 
696 3 4.0484e+00 2.9170e+00 2.3513e+00 
697 3 5.1798e+00 2.9170e+00 2.3513e+00 
698 3 6.3111e+00 2.9170e+00 2.3513e+00 
699 3 7.4425e+00 2.9170e+00 2.3513e+00 
700 3 8.5739e+00 2.9170e+00 2.3513e+00 
701 0 9.7053e+00 2.9170e+00 2.3513e+00 
702 0 8.8605e-02 3.4827e+00 2.3513e+00 
703 3 1.2200e+00 3.4827e+00 2.3513e+00 
704 3 2.3513e+00 3.4827e+00 2.3513e+00 
705 3 3.4827e+00 3.4827e+00 2.3513e+00 
706 3 4.6141e+00 3.4827e+00 2.3513e+00 
707 3 5.7455e+00 3.4827e+00 2.3513e+00 
708 3 6.8768e+00 3.4827e+00 2.3513e+00 
709 3 8.0082e+00 3.4827e+00 2.3513e+00 
710 0 9.1396e+00 3.4827e+00 2.3513e+00 
711 0 6.5429e-01 4.0484e+00 2.3513e+00 
712 3 1.7857e+00 4.0484e+00 2.3513e+00 
713 3 2.9170e+00 4.0484e+00 2.3513e+00 
714 3 4.0484e+00 4.0484e+00 2.3513e+00 
715 3 5.1798e+00 4.0484e+00 2.3513e+00 
716 3 6.3111e+00 4.0484e+00 2.3513e+00 
717 3 7.4425e+00 4.0484e+00 2.3513e+00 
718 3 8.5739e+00 4.0484e+00 2.3513e+00 
719 0 9.7053e+00 4.0484e+00 2.3513e+00 
720 0 8.8605e-02 4.6141e+00 2.3513e+00 
721 3 1.2200e+00 4.6141e+00 2.3513e+00 
722 3 2.3513e+00 4.6141e+00 2.3513e+00 
723 3 3.4827e+00 4.6141e+00 2.3513e+00 
724 3 4.6141e+00 4.6141e+00 2.3513e+00 
725 3 5.7455e+00 4.6141e+00 2.3513e+00 
726 3 6.8768e+00 4.6141e+00 2.3513e+00 
727 3 8.0082e+00 4.6141e+00 2.3513e+00 
728 0 9.1396e+00 4.6141e+00 2.3513e+00 
729 0 6.5429e-01 5.1798e+00 2.3513e+00 
730 3 1.7857e+00 5.1798e+00 2.3513e+00 
731 3 2.9170e+00 5.1798e+00 2.3513e+00 
732 3 4.0484e+00 5.1798e+00 2.3513e+00 
733 3 5.1798e+00 5.1798e+00 2.3513e+00 
734 3 6.3111e+00 5.1798e+00 2.3513e+00 
735 3 7.4425e+00 5.1798e+00 2.3513e+00 
736 3 8.5739e+00 5.1798e+00 2.3513e+00 
737 0 9.7053e+00 5.1798e+00 2.3513e+00 
738 0 8.8605e-02 5.7455e+00 2.3513e+00 
739 3 1.2200e+00 5.7455e+00 2.3513e+00 
740 3 2.3513e+00 5.7455e+00 2.3513e+00 
741 3 3.4827e+00 5.7455e+00 2.3513e+00 
742 3 4.6141e+00 5.7455e+00 2.3513e+00 
743 3 5.7455e+00 5.7455e+00 2.3513e+00 
744 3 6.8768e+00 5.7455e+00 2.3513e+00 
745 3 8.0082e+00 5.7455e+00 2.3513e+00 
746 0 9.1396e+00 5.7455e+00 2.3513e+00 
747 0 6.5429e-01 6.3111e+00 2.3513e+00 